# vtk DataFile Version 5.1
vtk output
ASCII
DATASET STRUCTURED_POINTS
DIMENSIONS 100 100 1
SPACING 1 1 1
ORIGIN 0 0 0
POINT_DATA 10000
FIELD FieldData 6
feature_1 1 10000 float
0 0 1.83734e-12 0 0 1.89529e-12 0 0 2.03567e-12 
0 0 0 0 0 0 0 2.50381e-12 0 
0 0 0 0 0 0 0 0 0 
0 8.75561e-13 0 0 0 0 3.25463e-12 0 0 
0 0 0 0 0 0 0 0 0 
4.37534e-12 0 0 0 0 0 0 0 0 
3.6188e-12 0 0 9.8737e-13 0 0 0 0 0 
0 2.21417e-12 5.38053e-12 0 0 0 0 0 0 
0 0 0 0 0 0 0 0 0 
0 0 0 0 0 0 0 1.18152e-12 0 
2.46414e-12 0 0 0 2.84032e-12 0 0 0 0 
0 0 2.36276e-12 0 0 2.02262e-12 0 0 1.21988e-12 
0 0 0 0 0 3.04223e-12 0 3.02826e-12 4.67615e-12 
0 0 1.61714e-12 0 0 0 0 0 0 
0 0 0 0 0 0 0 2.00803e-12 3.93858e-13 
0 0 0 7.36205e-12 0 2.84937e-12 2.88412e-12 0 0 
0 0 2.68652e-12 0 0 0 0 0 0 
0 0 0 0 0 1.76814e-12 0 0 0 
0 2.08449e-12 0 0 0 0 0 0 0 
0 0 0 0 0 0 0 0 0 
0 0 0 0 1.54139e-12 0 1.00397e-12 0 3.65331e-12 
1.09903e-12 0 0 4.47555e-13 0 0 3.43784e-12 0 0 
0 0 0 0 0 0 0 0 0 
0 0 3.85514e-12 3.93904e-13 4.04039e-12 0 0 0 0 
0 3.01386e-12 0 0 7.36107e-13 4.18456e-12 0 0 0 
0 0 0 0 0 0 0 0 0 
0 9.42061e-13 0 0 3.50165e-12 0 0 0 0 
8.94018e-12 0 1.04085e-12 0 3.7452e-12 0 0 0 0 
2.99599e-12 0 0 0 1.01888e-12 0 0 0 0 
0 0 0 0 0 0 0 1.89825e-12 1.24112e-12 
0 0 0 0 0 0 0 0 0 
1.07072e-12 2.81502e-12 0 0 3.29008e-12 0 0 0 0 
0 0 0 0 0 0 0 0 0 
0 0 0 0 0 0 0 0 0 
0 0 0 0 0 0 0 0 0 
0 0 0 0 0 0 0 0 0 
0 0 0 0 0 0 0 0 0 
0 0 0 0 0 0 0 7.63885e-12 0 
0 2.92764e-12 0 0 0 3.001e-12 0 4.67465e-13 2.33437e-12 
0 0 0 0 0 0 0 0 2.01427e-12 
0 0 0 0 0 0 0 0 0 
0 0 0 6.85641e-12 0 0 0 0 0 
0 0 0 0 0 2.56414e-12 0 0 0 
2.93017e-12 0 0 0 0 1.14181e-12 0 0 1.11969e-12 
0 0 0 0 0 0 0 0 5.25935e-12 
5.71834e-13 0 6.46021e-12 0 0 0 0 0 0 
0 5.7816e-12 0 0 0 0 0 0 0 
0 0 0 0 0 0 0 0 0 
0 0 0 0 0 0 0 0 0 
0 0 0 2.08151e-12 0 0 0 7.03154e-12 0 
0 1.95423e-12 0 0 0 0 0 0 0 
1.72175e-12 0 0 0 4.64332e-13 0 0 0 0 
0 0 0 0 0 4.10383e-12 0 0 4.08792e-12 
0 0 0 0 2.89612e-12 0 0 0 0 
0 0 0 0 1.7485e-12 1.79411e-12 0 0 0 
0 0 2.58573e-12 0 0 0 0 0 1.61035e-12 
0 0 0 0 0 0 7.06715e-12 0 6.36423e-12 
0 2.1088e-12 0 1.41652e-12 0 3.46044e-12 0 0 0 
0 0 0 0 0 4.18144e-12 0 0 4.52747e-12 
0 0 0 0 0 0 0 0 0 
0 0 0 0 0 0 0 1.41465e-12 1.45248e-11 
0 0 0 0 0 4.12788e-12 0 0 0 
0 3.13406e-12 1.37338e-12 0 0 0 5.08897e-14 4.49845e-12 0 
0 4.82654e-12 0 0 0 0 2.80579e-12 0 0 
3.48645e-12 3.95902e-12 0 0 0 4.47234e-12 0 3.77701e-12 5.12982e-12 
0 0 0 0 0 0 0 4.46347e-12 3.29345e-13 
1.20858e-12 0 0 0 0 0 0 0 8.5368e-12 
0 0 0 0 0 0 0 0 0 
2.75306e-12 4.08614e-13 0 0 0 9.59999e-13 1.99162e-12 0 0 
0 0 2.70752e-12 7.35637e-12 0 0 6.97039e-12 0 0 
0 0 5.36437e-12 0 0 0 0 0 5.65718e-12 
0 3.58097e-12 0 0 2.10088e-12 0 4.91127e-12 0 0 
0 0 0 0 8.9449e-13 0 0 0 0 
2.41849e-11 0 0 0 0 0 0 0 0 
0 0 0 0 2.18096e-12 4.46138e-12 0 5.38987e-12 3.49997e-12 
0 0 0 0 0 0 0 0 0 
6.68022e-12 0 0 0 0 0 0 0 0 
0 0 3.03093e-12 0 0 0 0 0 0 
0 0 2.2552e-13 0 0 0 0 5.50232e-12 0 
0 0 6.95032e-12 0 0 0 0 0 0 
0 0 0 0 0 0 0 0 3.93826e-12 
0 0 0 0 1.59532e-12 0 0 0 0 
0 0 0 0 0 0 0 0 0 
0 2.6803e-12 0 0 0 0 0 0 0 
0 7.46229e-12 0 0 0 0 0 3.09873e-12 0 
2.5712e-12 0 0 0 0 0 0 4.87535e-12 0 
0 2.56998e-11 0 0 2.29667e-12 0 0 0 0 
0 0 0 0 0 0 0 0 0 
0 0 0 0 8.08715e-12 0 0 8.29845e-13 0 
0 0 2.07559e-12 0 0 0 0 2.16411e-12 0 
0 0 0 0 0 0 0 0 0 
1.74182e-12 0 0 0 0 0 0 7.05022e-11 0 
4.32536e-12 7.19484e-12 0 0 0 0 0 0 0 
0 0 6.01161e-12 0 8.20814e-11 0 0 0 2.70282e-10 
0 4.44218e-12 0 0 0 0 4.40602e-12 0 0 
0 0 0 7.62155e-12 2.57673e-11 0 0 5.9513e-11 2.40985e-11 
0 0 0 0 0 1.78482e-12 3.95246e-12 5.89472e-12 1.37524e-12 
1.66086e-12 0 0 0 0 2.47868e-12 0 0 1.04473e-11 
0 0 0 0 0 0 0 1.28547e-12 0 
0 0 0 0 0 4.36299e-12 0 0 0 
0 0 0 0 0 0 0 0 0 
0 0 6.87312e-14 0 0 0 0 0 5.86854e-12 
0 0 0 3.01751e-12 0 0 6.18992e-12 0 0 
0 0 0 4.68195e-12 1.68515e-12 0 0 0 5.81244e-12 
0 0 0 0 0 0 0 0 1.24252e-10 
0 1.11256e-09 0 3.63488e-10 0 0 0 0 2.27844e-11 
0 0 0 0 1.01559e-10 0 0 0 0 
2.24431e-10 0 0 0 0 0 0 0 0 
1.04011e-11 0 0 0 0 0 0 0 0 
0 0 0 0 0 0 0 0 0 
0 0 0 0 0 0 2.38188e-12 0 0 
4.88402e-12 0 0 0 0 0 0 5.65926e-13 0 
0 7.82587e-13 0 0 1.70308e-12 2.50199e-12 0 0 0 
0 0 0 4.2206e-12 6.00304e-12 0 1.79793e-12 0 0 
0 0 1.68191e-10 0 0 1.52505e-12 0 0 0 
0 0 0 0 0 0 0 0 0 
0 1.85005e-09 0 0 0 0 0 4.87284e-11 0 
2.38626e-12 1.27334e-11 0 0 0 3.87189e-12 0 0 6.60887e-10 
4.35324e-10 4.96392e-12 0 0 0 0 0 0 9.5843e-13 
0 5.84286e-11 0 4.21447e-12 0 0 1.51001e-11 0 0 
0 0 3.65235e-12 2.64311e-12 0 0 0 0 0 
4.83854e-12 4.36287e-13 0 0 0 0 0 0 0 
0 0 0 0 0 0 3.44653e-12 0 0 
0 0 3.48821e-12 0 0 0 0 0 0 
0 0 0 0 6.03566e-12 0 0 0 0 
0 7.92382e-13 0 6.1536e-10 4.28485e-10 0 1.23994e-10 0 0 
0 2.49222e-12 1.84596e-10 0 0 9.45382e-12 0 0 0 
0 2.26999e-12 0 5.63104e-13 0 0 0 2.22971e-10 0 
1.02914e-12 1.55575e-10 0 0 0 0 0 0 0 
2.35814e-12 0 0 0 0 0 0 3.10083e-11 2.14686e-11 
0 0 0 9.67714e-11 0 0 0 0 5.69015e-12 
0 0 0 0 5.07831e-12 0 0 0 0 
0 0 1.71775e-12 0 0 0 0 0 0 
0 0 0 0 0 0 0 6.02507e-13 0 
0 0 0 0 0 0 0 0 0 
0 0 0 0 0 0 0 0 0 
0 3.12592e-13 0 0 0 0 0 0 6.70987e-12 
0 0 0 2.10494e-10 0 0 0 0 2.90999e-13 
0 2.26399e-12 0 8.4817e-07 7.43882e-09 2.31828e-09 0 0 0 
0 0 0 0 8.98441e-11 0 2.20702e-09 0 6.82939e-07 
1.5361e-09 0 0 0 0 0 4.48379e-12 0 0 
0 0 0 0 0 0 1.54109e-12 6.21691e-10 0 
0 0 0 4.82334e-11 2.58468e-11 2.00122e-12 0 0 1.80653e-12 
0 4.92033e-12 0 0 0 4.63915e-12 0 0 1.23845e-12 
0 0 0 0 3.37867e-12 0 0 0 0 
0 1.07927e-12 0 0 0 0 1.81705e-12 0 0 
0 0 0 0 0 0 0 0 0 
0 0 9.93729e-13 0 0 0 5.67036e-10 0 0 
0 0 0 1.57847e-09 0 0 0 1.00214e-09 0 
3.47914e-09 1.30203e-12 0 8.94466e-07 0 7.09026e-09 0 0 5.17409e-10 
0 2.90027e-10 4.02912e-12 0 0 0 0 0 0 
0 0 0 1.27926e-09 0 0 0 0 0 
0 4.73076e-11 0 0 0 0 3.09416e-12 0 0 
0 1.61541e-09 0 0 1.73867e-10 0 0 1.37886e-12 0 
0 0 0 0 2.52806e-13 0 0 4.47452e-12 0 
0 0 0 0 0 0 0 0 0 
0 0 0 0 0 0 0 3.40661e-12 0 
0 0 0 1.63704e-12 4.48889e-12 0 0 1.45411e-12 0 
0 3.0078e-12 0 0 0 6.85236e-07 4.29701e-12 1.54136e-09 0 
0 0 8.583e-10 1.58105e-09 0 8.85334e-09 4.52443e-12 2.72172e-10 1.34823e-09 
0 6.039e-12 0 0 2.17003e-12 0 0 0 1.47271e-09 
0 0 0 0 0 0 3.61506e-12 0 7.35822e-10 
0 0 0 1.37402e-10 0 0 0 0 0 
0 0 0 2.55711e-11 0 0 0 0 0 
0 0 0 9.24098e-10 4.13759e-10 0 0 1.54051e-12 0 
0 0 0 6.4261e-12 0 0 0 0 0 
0 0 0 2.42429e-12 4.67677e-12 0 0 0 0 
0 2.86447e-12 1.33592e-12 0 0 5.30409e-12 0 0 0 
0 1.55221e-12 0 0 0 0 5.21751e-12 0 1.00637e-10 
0 8.32696e-11 0 0 0 0 3.64502e-12 0 0 
9.77791e-10 1.4978e-10 0 0 1.22685e-09 0 6.84917e-07 5.28537e-09 0 
0 0 0 0 0 0 8.55681e-07 9.09493e-13 0 
7.67878e-10 0 2.46257e-13 0 0 1.99974e-11 0 0 2.85477e-10 
0 0 0 0 0 0 0 0 0 
1.38903e-10 2.29014e-10 0 0 0 0 3.39519e-12 0 0 
0 0 0 0 5.26178e-10 1.84597e-10 0 0 0 
0 0 7.7575e-13 0 0 0 0 0 0 
0 0 0 0 0 0 7.80807e-14 3.57613e-12 0 
2.29729e-12 0 0 0 0 0 0 0 0 
0 0 0 0 0 0 0 0 0 
0 0 0 0 0 0 1.99993e-09 1.66846e-12 0 
1.01017e-09 0 0 5.46588e-10 0 0 0 8.35578e-13 0 
0 0 0 0 0 7.92543e-07 1.3477e-08 0 0 
0 0 7.33628e-07 0 5.1576e-10 1.37353e-09 0 0 0 
0 3.00764e-10 0 0 1.74374e-09 1.00502e-12 0 5.51368e-12 2.08855e-09 
0 2.43135e-09 0 7.85251e-10 0 1.36265e-12 0 0 0 
2.16428e-12 0 0 4.59017e-10 0 0 0 3.23752e-11 1.51616e-11 
0 0 0 1.90726e-12 0 0 0 0 0 
0 7.19333e-12 3.03148e-12 0 0 4.51309e-13 0 0 0 
0 5.72868e-12 0 0 0 0 0 0 0 
0 3.50822e-12 0 0 0 0 0 0 0 
0 0 0 0 0 5.94687e-10 1.29929e-09 5.79931e-09 0 
1.88396e-09 0 0 0 2.27632e-12 2.06548e-10 0 0 2.4839e-09 
1.53928e-09 1.01875e-13 0 0 1.25459e-09 2.11351e-09 0 2.12908e-12 2.23737e-09 
0 0 0 0 0 0 1.28016e-09 0 0 
0 0 0 5.11954e-10 2.04302e-12 4.67702e-10 0 7.66119e-07 0 
7.65942e-07 8.26506e-09 1.00826e-09 0 0 0 0 3.64727e-12 7.07185e-07 
3.65378e-12 1.20888e-12 2.67048e-10 0 0 0 7.46947e-13 4.06077e-12 0 
2.41179e-11 0 0 0 0 0 0 0 9.60316e-12 
1.78266e-11 0 0 3.25416e-12 0 0 0 0 2.70733e-12 
0 0 7.77183e-13 0 0 0 0 5.48442e-12 0 
0 0 0 0 0 0 0 0 0 
0 0 0 0 0 4.03308e-09 0 1.53471e-09 3.1577e-12 
0 0 0 5.18647e-13 0 3.27906e-10 0 6.94255e-12 1.78973e-09 
1.15447e-10 1.55951e-09 2.25597e-12 0 5.91276e-09 0 5.62455e-10 0 7.78978e-13 
0 0 4.96273e-12 0 0 0 1.9155e-09 0 0 
0 0 0 0 0 1.39449e-09 0 5.65559e-12 0 
0 0 2.81256e-09 0 0 0 0 7.78269e-10 0 
0 0 2.19521e-09 0 1.85729e-09 0 1.26989e-11 0 0 
0 0 0 2.17157e-12 2.11281e-10 0 1.62055e-10 0 8.53408e-12 
0 7.74718e-12 0 0 0 0 0 0 0 
0 1.51653e-12 3.10239e-12 0 0 0 0 0 2.96599e-12 
0 0 0 0 0 6.27897e-12 9.12941e-12 0 0 
0 0 0 0 0 0 0 2.27406e-09 1.68962e-09 
3.32601e-09 6.88226e-07 0 0 0 0 1.83798e-11 0 0 
0 0 0 0 6.89296e-07 0 8.40001e-13 0 0 
0 9.63023e-07 9.82011e-07 0 2.40342e-09 7.66065e-07 0 0 0 
0 0 0 5.05306e-12 0 0 0 1.92436e-09 0 
0 0 0 4.16394e-10 0 1.29395e-09 0 1.98948e-09 1.09336e-12 
0 0 9.50864e-10 1.39961e-09 0 0 3.07531e-10 5.15703e-10 3.41224e-10 
0 0 0 0 0 0 4.73296e-10 0 0 
4.81932e-13 1.27749e-12 0 3.30965e-12 0 0 0 0 0 
0 0 0 0 0 0 0 0 0 
3.73671e-12 4.51285e-12 1.60648e-11 0 0 1.18773e-11 0 0 0 
5.71228e-12 0 1.6302e-12 9.37311e-10 0 4.95337e-09 6.85142e-07 5.00098e-09 0 
0 3.03642e-09 3.81983e-09 0 6.40426e-13 0 0 0 0 
0 0 0 1.45231e-09 0 3.02245e-12 0 0 1.9253e-09 
0 2.8717e-12 3.11948e-12 0 0 1.03133e-12 1.8686e-09 0 1.16535e-09 
0 0 1.08857e-09 1.83367e-12 0 2.37544e-10 2.10889e-12 0 0 
0 0 4.61597e-10 0 8.08508e-11 4.01106e-10 0 0 0 
0 7.09449e-07 0 2.9143e-12 0 0 0 3.80651e-12 3.2164e-12 
4.44547e-10 0 3.96218e-11 0 0 0 1.5323e-09 1.7236e-09 0 
0 0 1.56079e-12 1.04568e-10 0 0 0 0 0 
0 0 0 0 1.37478e-12 0 0 0 0 
0 0 0 0 0 0 0 2.51644e-12 0 
0 0 0 3.71201e-12 0 9.54262e-10 0 0 5.74654e-09 
0 6.08879e-13 1.36436e-09 2.25285e-10 1.51922e-09 0 0 4.17078e-12 0 
0 0 1.79022e-11 0 0 0 0 4.89755e-12 7.2648e-10 
2.17834e-09 0 0 0 0 0 0 3.99029e-09 0 
1.43372e-09 0 0 0 0 0 0 0 0 
0 0 7.725e-10 0 0 1.46911e-09 2.96135e-10 0 0 
0 0 9.25153e-14 0 8.97367e-10 0 0 0 1.60735e-09 
8.3806e-12 5.41057e-10 0 0 0 0 1.61524e-09 5.0747e-09 0 
0 2.36843e-12 0 0 7.39482e-13 0 0 2.35947e-12 1.78112e-12 
0 0 3.26064e-12 0 0 0 0 8.45934e-13 0 
0 0 5.71362e-12 0 1.31873e-12 0 0 1.69653e-12 0 
0 0 0 0 1.66217e-09 0 0 0 0 
0 0 0 0 1.06222e-09 0 0 2.57839e-12 4.60206e-12 
0 4.70096e-12 0 4.43139e-10 0 3.8944e-12 1.11382e-09 0 0 
0 3.02052e-10 2.24077e-09 0 0 1.76196e-09 0 0 0 
0 4.94898e-10 0 0 0 0 1.20139e-10 0 0 
0 3.07713e-12 0 0 0 0 0 5.1064e-09 0 
0 0 0 0 0 0 0 0 0 
0 0 2.70353e-10 0 2.94114e-10 1.76255e-11 4.85868e-12 2.44038e-10 0 
7.65822e-07 2.90492e-12 1.86439e-09 0 0 0 0 0 0 
0 0 0 0 0 1.89107e-12 0 5.28076e-12 1.52826e-12 
4.70828e-12 0 0 0 0 0 0 3.77379e-10 0 
0 4.88382e-12 0 0 1.3485e-12 1.61865e-09 1.5461e-09 5.54849e-13 0 
0 7.14183e-10 0 0 0 0 0 1.85012e-09 0 
0 0 0 5.23879e-10 2.67163e-10 0 8.45537e-10 0 2.29993e-10 
0 0 0 0 0 0 0 9.38388e-07 9.35355e-07 
0 4.30769e-12 0 0 3.42987e-12 0 0 0 7.40366e-10 
4.01708e-10 0 0 0 0 0 0 0 6.85367e-07 
5.17266e-13 2.98602e-12 3.98183e-11 0 3.93496e-12 0 0 1.90359e-12 0 
0 0 8.47127e-09 3.35033e-12 0 0 1.93204e-12 0 2.98636e-09 
6.27633e-09 0 0 0 6.45132e-13 0 0 0 0 
0 0 0 0 0 1.21447e-12 0 0 0 
0 0 0 0 3.88201e-12 0 0 0 0 
0 0 0 0 0 0 0 1.60557e-09 0 
0 0 0 0 0 0 0 2.70961e-10 0 
1.72139e-09 0 1.94809e-12 0 0 0 0 0 0 
0 0 0 0 2.50094e-12 1.5569e-09 0 0 3.66215e-09 
0 0 2.51238e-09 0 3.84811e-10 0 0 2.13888e-09 0 
1.21108e-09 0 0 8.88845e-12 0 0 0 3.08709e-09 0 
0 0 0 0 7.37118e-10 0 5.09317e-09 0 2.31717e-10 
0 0 0 0 3.90528e-09 0 0 0 1.00372e-09 
1.40623e-09 0 7.73622e-07 0 0 0 0 0 0 
0 0 2.86681e-12 0 0 0 0 0 0 
0 0 0 3.12771e-12 3.67847e-12 0 0 0 0 
0 0 0 1.30836e-09 1.44047e-09 2.10771e-10 0 0 0 
0 0 4.02066e-12 2.19722e-10 0 2.48602e-12 0 0 0 
1.14802e-12 0 0 0 1.27283e-09 0 1.27948e-09 2.10523e-12 0 
0 0 8.48701e-11 0 0 0 0 2.4659e-09 6.67534e-13 
0 0 0 0 2.53067e-09 4.30874e-13 0 0 1.47935e-09 
1.02357e-09 0 1.1952e-09 0 6.84627e-11 0 0 0 3.25274e-11 
0 0 2.11553e-09 0 0 0 1.04512e-08 6.93534e-07 5.56869e-09 
0 3.87334e-12 0 0 3.49989e-12 5.3207e-11 0 8.24396e-10 6.654e-10 
0 0 4.54615e-09 3.44645e-12 0 6.26985e-10 1.93589e-11 0 0 
7.07933e-12 0 0 0 0 2.67212e-12 0 0 0 
0 0 0 0 6.46836e-12 0 8.31817e-12 0 0 
2.65047e-12 0 1.81779e-12 0 0 0 1.33278e-12 0 0 
7.6604e-07 0 0 0 0 2.3618e-10 0 0 0 
0 4.15613e-12 4.77528e-09 6.8564e-07 0 0 2.10877e-09 3.42297e-09 7.44199e-07 
0 0 1.47687e-09 5.06217e-12 0 1.80218e-12 0 1.30639e-09 0 
0 0 8.15555e-11 0 0 9.45743e-10 0 0 0 
0 4.50573e-12 0 0 5.59928e-10 0 3.74814e-10 5.42653e-11 5.31062e-10 
0 0 1.5195e-09 0 0 3.1427e-11 1.64252e-12 0 3.65568e-09 
0 0 3.15172e-09 0 0 0 0 0 0 
5.32804e-12 0 3.41427e-12 0 5.52221e-12 0 0 0 0 
0 0 0 0 0 0 0 0 0 
3.3597e-12 0 0 0 1.69687e-12 5.39592e-12 0 0 0 
0 0 0 0 0 0 2.09671e-12 0 8.3032e-07 
0 3.87423e-12 0 0 0 0 0 0 0 
0 8.88268e-10 1.18815e-09 1.47138e-09 0 1.15147e-12 0 0 0 
5.70471e-12 0 7.51872e-07 0 0 4.08574e-09 0 0 0 
0 1.41906e-09 0 0 0 0 0 0 0 
0 0 0 8.83288e-10 8.28819e-13 0 1.88482e-12 2.02354e-11 0 
0 1.1992e-09 0 0 0 0 0 0 0 
0 0 5.63395e-12 0 0 6.95581e-07 0 7.03411e-13 1.406e-09 
2.32356e-12 4.31847e-10 0 0 1.76005e-12 1.15081e-09 0 0 0 
0 1.8939e-12 0 0 1.83298e-12 0 0 0 0 
0 2.44969e-12 0 0 0 3.47381e-12 3.89814e-12 0 4.956e-12 
0 0 0 4.05782e-09 0 0 0 0 0 
2.65263e-12 4.34943e-12 4.22412e-09 0 0 1.64949e-12 0 3.40502e-13 0 
0 0 0 7.52612e-12 1.37299e-09 0 0 0 0 
2.00789e-09 3.57437e-12 4.69832e-12 0 0 0 2.8691e-09 6.48484e-09 3.9601e-09 
2.14483e-12 6.62158e-09 7.50048e-07 0 3.51645e-12 2.27361e-10 0 0 0 
5.06839e-10 0 0 0 0 2.91423e-09 4.65545e-09 1.71674e-09 0 
0 1.66283e-10 6.85564e-10 0 0 1.51737e-12 0 0 0 
6.89598e-10 0 2.60089e-09 0 0 0 0 0 0 
0 0 0 3.21269e-10 0 7.14891e-07 0 4.69594e-12 0 
0 0 0 0 0 5.58648e-12 4.08319e-12 0 0 
4.00934e-13 6.72038e-12 4.64955e-12 0 0 0 0 0 0 
6.40722e-11 0 0 0 0 0 1.45005e-09 1.98735e-09 7.57866e-07 
8.7489e-09 0 7.93802e-07 4.86804e-09 2.72213e-09 0 0 0 1.12871e-12 
0 1.00986e-09 1.68489e-12 4.40433e-12 0 0 2.72839e-10 1.00235e-09 0 
0 0 1.59159e-09 0 0 0 1.35213e-12 0 0 
0 0 0 8.45399e-09 0 0 0 0 0 
0 0 0 0 1.25437e-09 0 6.99122e-07 5.41665e-09 3.25259e-09 
0 0 0 3.863e-10 4.84655e-12 0 6.89425e-07 0 1.97849e-09 
0 0 7.79785e-09 3.89784e-09 2.75491e-09 0 0 0 5.90699e-10 
0 1.13702e-12 1.2662e-09 0 0 0 1.24465e-12 4.44196e-12 5.62444e-12 
3.77799e-10 0 1.96824e-12 0 2.70615e-12 5.58546e-12 0 0 3.45348e-13 
5.99408e-12 1.68178e-12 0 0 8.04412e-13 0 0 0 0 
0 1.82355e-12 0 1.01486e-10 0 2.91493e-10 2.69668e-09 0 0 
0 5.36634e-12 0 0 6.42752e-10 6.35213e-10 0 1.23784e-09 3.32547e-09 
0 0 3.51481e-09 2.11826e-09 0 1.31467e-12 2.37667e-10 0 8.23636e-11 
0 0 0 0 0 4.56449e-12 0 0 0 
0 0 0 7.71969e-07 5.20902e-09 0 0 0 0 
0 0 0 1.69698e-10 0 0 0 2.08182e-09 0 
0 0 0 1.9768e-09 1.64556e-09 0 5.18462e-09 0 3.91106e-09 
0 4.45219e-12 0 0 0 0 1.32041e-09 1.05187e-09 1.12012e-09 
0 0 0 5.45573e-12 2.37653e-09 0 4.23722e-12 0 6.04111e-12 
0 0 0 0 0 2.53391e-12 0 0 0 
0 8.33349e-13 0 0 0 1.15477e-12 0 0 0 
7.51865e-12 0 0 7.14613e-11 0 0 3.62118e-12 0 0 
0 0 5.55365e-12 0 0 0 2.12626e-09 3.60003e-09 0 
0 9.32769e-07 3.65276e-12 0 0 0 2.94525e-10 0 0 
0 2.85796e-11 6.39022e-10 0 0 0 0 7.6963e-07 0 
6.46521e-09 0 0 0 0 0 0 0 0 
0 1.94996e-12 0 0 1.85427e-09 3.22645e-09 2.07261e-09 4.61359e-09 3.20415e-12 
2.5742e-09 0 0 0 0 0 1.89922e-12 0 0 
1.31649e-10 2.40293e-12 0 0 0 0 0 1.04538e-09 1.91668e-12 
0 0 0 0 3.29216e-09 0 2.17446e-13 7.18456e-07 4.98908e-09 
0 0 0 1.32768e-10 0 0 0 0 0 
0 0 0 0 0 0 0 0 0 
1.93976e-12 0 9.79174e-12 0 0 0 0 1.77075e-12 4.26344e-10 
4.81321e-12 1.00803e-09 1.35187e-09 0 0 0 3.17479e-10 0 0 
4.04259e-09 0 9.48067e-07 0 0 0 0 1.9031e-12 0 
8.88859e-12 5.35702e-12 0 0 0 3.29267e-09 0 6.88894e-09 0 
0 3.78452e-12 0 0 4.92941e-12 0 3.50856e-10 1.00382e-09 1.36931e-09 
0 0 3.99188e-10 4.60096e-12 0 1.47981e-09 0 5.43633e-07 0 
0 3.78567e-09 0 0 0 4.95453e-12 3.03206e-09 3.50114e-09 0 
0 0 0 2.38946e-09 0 0 0 9.43689e-11 0 
0 0 0 0 0 0 2.15216e-09 0 0 
2.50222e-12 0 0 0 0 0 0 0 0 
0 0 0 0 0 0 0 0 0 
0 2.83787e-12 0 0 0 1.80738e-12 0 3.95081e-12 0 
0 0 5.02187e-10 7.62678e-12 0 0 6.15433e-10 0 0 
0 0 0 0 0 6.71535e-09 7.28062e-07 4.63292e-09 0 
2.00514e-12 0 0 0 0 0 4.35692e-10 0 0 
0 0 1.87196e-12 1.38002e-10 0 0 0 5.76187e-12 2.58284e-10 
0 0 0 0 0 0 3.62287e-12 0 4.9007e-09 
2.24966e-09 0 0 0 7.99404e-07 0 0 0 0 
0 4.45037e-12 0 0 0 0 0 0 3.20019e-12 
0 0 5.46027e-12 0 0 4.06073e-09 6.95869e-07 1.9004e-12 0 
0 0 0 0 0 0 0 0 0 
0 0 0 0 0 1.96955e-12 0 0 0 
0 0 0 0 5.20201e-12 0 0 0 0 
0 7.57827e-12 0 0 0 0 0 7.47989e-11 6.93459e-12 
2.36624e-09 0 5.79498e-13 0 6.58328e-10 0 1.66035e-09 5.26897e-09 0 
0 1.97754e-09 0 0 0 0 0 0 0 
9.63773e-07 9.80014e-07 3.72896e-13 0 7.71538e-10 0 0 0 5.11554e-09 
0 0 0 0 0 0 1.14077e-10 0 4.64265e-10 
5.05149e-10 1.77608e-09 2.13949e-09 1.31033e-10 0 7.04734e-12 1.62099e-12 4.34564e-09 0 
1.65305e-09 0 0 0 0 1.24427e-09 0 0 0 
0 1.82538e-10 0 0 4.51358e-10 0 2.72179e-09 2.64595e-09 0 
0 3.00325e-09 0 6.87735e-10 0 0 1.31404e-11 0 0 
0 0 2.18423e-12 0 0 0 0 0 0 
3.98216e-12 0 0 0 0 0 0 0 0 
7.3543e-11 5.08913e-11 0 0 0 0 0 0 0 
1.55912e-10 0 0 2.57063e-09 0 0 0 0 0 
0 5.72624e-10 0 1.09722e-12 0 0 2.72119e-10 0 3.32697e-09 
0 2.31124e-12 0 6.90748e-13 4.74746e-09 1.49057e-09 0 4.42221e-12 4.08085e-09 
0 2.84644e-12 2.3965e-09 0 4.24336e-09 7.92317e-12 0 1.89444e-12 0 
1.39006e-12 0 0 6.64068e-12 0 0 3.58178e-10 0 3.99131e-09 
0 0 0 7.8527e-07 0 0 1.40791e-09 0 1.44146e-10 
2.40258e-10 0 0 0 0 0 0 5.74841e-12 3.84699e-12 
0 0 0 0 0 0 0 0 0 
0 0 0 2.30768e-12 0 0 0 0 2.82812e-12 
0 2.00792e-12 0 0 0 0 0 2.43878e-11 0 
0 7.50166e-11 0 0 0 0 8.0682e-11 2.14182e-12 0 
0 0 0 4.20835e-09 7.61626e-07 0 9.93741e-09 0 0 
0 4.03313e-09 1.04135e-12 2.68596e-09 0 6.0596e-10 1.10367e-12 0 1.17945e-09 
1.9878e-12 1.50394e-12 0 4.58056e-12 0 0 0 0 0 
0 8.14649e-07 0 0 0 0 0 9.02473e-10 6.15097e-10 
2.09462e-12 8.16464e-10 0 3.63829e-12 0 0 0 0 0 
0 0 0 4.13272e-12 0 0 0 0 0 
0 0 0 0 0 0 0 0 0 
0 0 4.3057e-12 0 0 0 0 0 0 
0 0 0 0 0 0 0 0 5.05756e-12 
0 0 0 5.72755e-12 4.4055e-12 0 0 0 0 
4.11022e-11 1.69561e-10 0 6.53329e-10 0 0 0 0 0 
6.67407e-12 0 0 2.99251e-10 0 0 0 8.33299e-07 5.06821e-09 
0 1.55134e-12 6.13892e-12 0 0 3.48439e-12 0 0 0 
0 1.77077e-09 0 3.65978e-12 7.58775e-07 0 9.92646e-10 0 0 
0 0 1.18141e-08 0 0 0 4.75067e-09 8.95625e-10 1.79075e-09 
0 0 0 0 0 0 7.78779e-10 0 0 
0 0 1.01317e-09 0 7.99701e-07 7.40763e-09 0 0 0 
0 0 0 2.80584e-12 0 0 0 0 0 
0 0 0 0 0 1.41434e-10 0 0 0 
3.03967e-12 0 0 0 0 3.21659e-12 0 3.41002e-12 0 
0 0 0 0 3.7534e-12 0 0 0 0 
9.42886e-11 0 0 0 0 0 1.17826e-09 0 0 
1.06874e-11 0 0 0 3.57273e-10 0 0 0 6.097e-09 
0 0 0 4.00853e-09 0 0 1.52005e-09 0 6.26428e-10 
0 0 0 0 0 7.43045e-09 0 1.09399e-09 8.97156e-09 
0 9.4738e-07 0 0 0 0 0 0 4.34785e-09 
1.41776e-09 0 0 0 0 0 0 0 2.94305e-12 
0 0 2.97908e-09 0 0 0 0 0 0 
6.4887e-10 0 0 0 0 0 0 0 1.5364e-12 
0 0 0 0 1.04748e-12 0 0 9.49327e-12 0 
0 0 0 0 0 0 6.17098e-13 0 0 
0 0 0 0 0 3.04233e-12 0 0 0 
0 0 0 0 7.42793e-13 0 1.86521e-12 0 0 
6.72853e-10 3.88104e-10 0 0 4.4599e-12 0 0 0 1.15672e-08 
0 0 0 0 0 0 1.8893e-12 1.31276e-09 0 
0 0 0 0 6.0508e-10 0 0 1.01618e-08 0 
3.62525e-12 9.23739e-07 0 2.62802e-12 0 0 0 0 0 
0 2.52466e-12 1.63884e-12 0 0 7.08214e-07 0 3.68429e-09 0 
0 2.01852e-09 0 0 4.69934e-09 0 0 0 0 
0 0 0 1.4595e-12 0 0 0 0 0 
1.57065e-13 9.75679e-13 6.82861e-10 1.03237e-10 0 0 0 8.61296e-10 0 
1.66577e-10 0 0 0 0 0 0 0 0 
0 0 0 2.82392e-12 0 0 0 0 0 
0 0 0 0 0 0 0 6.82087e-07 0 
0 0 0 0 0 0 0 0 0 
2.46306e-12 1.5174e-12 1.83739e-09 0 2.02571e-09 1.33773e-09 0 1.521e-09 0 
0 0 0 7.50148e-10 1.24147e-12 5.58885e-10 0 0 0 
8.07514e-07 0 0 0 0 1.068e-09 0 0 0 
0 2.36942e-11 6.33479e-10 0 0 0 5.50868e-09 0 3.98271e-09 
0 0 0 1.6053e-12 0 4.54092e-10 2.86296e-09 0 1.69676e-09 
9.96779e-10 4.38e-10 3.34343e-11 0 0 0 0 2.31808e-10 0 
0 0 0 0 0 0 0 0 0 
6.30324e-10 0 2.69909e-10 3.29529e-11 0 0 0 0 0 
0 0 1.62364e-12 0 0 5.48916e-12 0 0 0 
0 0 0 0 3.467e-10 1.96282e-12 2.48132e-09 2.43636e-09 0 
0 0 0 5.85882e-12 0 4.9548e-10 0 7.29707e-10 5.784e-13 
1.5954e-09 3.81305e-09 0 0 0 0 1.75777e-12 0 1.03917e-11 
0 0 0 0 7.99786e-10 9.84771e-10 0 0 0 
0 0 1.99838e-13 0 0 0 6.14666e-10 1.54234e-09 0 
0 0 2.05415e-11 1.74806e-10 5.00514e-13 3.50139e-12 0 0 0 
5.05352e-09 0 2.65165e-12 9.07825e-07 0 9.03234e-07 1.02052e-08 0 9.88854e-10 
0 0 0 0 1.59502e-10 4.97535e-12 0 0 5.939e-10 
0 0 0 0 3.99899e-09 0 3.02314e-12 0 0 
2.30913e-09 0 0 4.05147e-12 0 0 2.04627e-12 0 0 
0 0 0 0 5.07809e-15 0 0 0 0 
5.29526e-12 5.77481e-12 1.23054e-11 6.23511e-11 0 0 2.81755e-10 0 0 
0 1.56454e-12 0 0 1.72194e-09 3.29742e-09 0 0 0 
0 0 0 1.56202e-12 0 2.5714e-12 0 0 0 
0 0 0 0 6.23516e-10 0 0 0 0 
2.17242e-09 0 5.22579e-09 2.30971e-12 0 0 0 0 0 
0 0 0 0 0 0 0 4.22881e-12 0 
7.17908e-07 3.00413e-09 0 0 0 9.46226e-07 2.56841e-12 4.26197e-09 0 
0 2.69802e-11 0 0 0 0 0 0 0 
0 0 0 0 4.55184e-09 0 0 0 7.6405e-07 
0 0 0 0 0 0 0 0 0 
0 0 0 0 0 0 0 2.47423e-12 0 
0 0 0 0 0 0 1.81963e-10 0 0 
0 0 0 2.04432e-11 0 0 0 6.82386e-07 0 
0 0 0 4.86905e-12 7.99682e-12 0 0 4.022e-10 0 
0 0 0 0 0 0 1.71875e-12 0 0 
1.41362e-11 0 0 0 0 9.56659e-07 0 0 5.37641e-12 
0 4.49729e-10 3.67067e-10 0 0 0 0 1.73246e-12 8.84732e-13 
3.09868e-09 1.02595e-08 0 0 0 1.8479e-09 0 0 1.98427e-09 
0 0 0 5.76628e-10 3.01646e-12 0 0 0 0 
1.53025e-09 0 9.91157e-13 0 5.0979e-12 1.35006e-08 7.44985e-07 0 0 
0 0 5.02972e-10 6.64783e-12 0 0 2.24205e-10 0 0 
0 0 0 0 0 0 0 0 0 
0 0 0 0 1.87431e-12 0 0 0 0 
0 0 0 0 0 0 3.33539e-10 1.01748e-09 0 
0 8.88848e-12 0 0 0 0 0 0 0 
6.07938e-10 0 0 0 2.93266e-09 3.51689e-12 0 0 0 
0 3.28553e-11 4.90496e-11 0 0 1.23883e-08 0 0 5.91014e-10 
0 0 0 0 0 2.5482e-12 1.14311e-12 0 1.03727e-09 
0 0 0 0 1.08206e-12 4.2202e-12 0 0 4.52264e-12 
0 0 0 0 3.64607e-12 0 0 2.80651e-10 0 
0 0 1.83434e-09 0 0 0 0 2.10861e-09 0 
0 4.23682e-12 7.57633e-07 2.64572e-12 0 0 0 0 0 
0 3.25961e-12 0 1.52932e-13 0 0 0 0 1.10515e-12 
0 0 0 0 0 0 0 0 0 
0 3.28668e-10 0 5.94229e-11 6.90903e-10 0 1.44882e-10 4.76019e-11 0 
1.93425e-09 2.70124e-12 0 0 5.65581e-12 5.91773e-11 0 0 1.12269e-11 
0 0 0 0 0 2.87453e-09 0 0 9.05116e-10 
0 0 0 0 0 0 0 1.06636e-09 3.53389e-09 
0 0 0 0 7.97806e-10 0 0 0 0 
0 0 0 0 0 0 1.96875e-09 3.08022e-12 3.26063e-09 
3.05698e-09 0 0 0 1.78879e-12 0 0 0 0 
4.04122e-12 0 0 0 0 0 7.31239e-07 8.80863e-13 1.64954e-09 
0 0 4.35892e-09 2.71833e-09 0 0 0 0 0 
0 0 0 0 0 0 0 0 0 
0 0 0 0 0 0 0 0 0 
0 0 0 3.00463e-12 0 0 0 0 6.16435e-10 
0 0 0 0 0 0 0 0 0 
6.39373e-12 0 0 1.12685e-09 0 1.11556e-12 0 0 0 
0 3.34794e-10 0 1.74326e-12 2.02889e-09 9.54768e-09 7.19824e-07 0 0 
1.68973e-09 0 1.29789e-09 0 0 0 0 0 5.84531e-12 
0 1.16744e-12 0 0 0 0 6.08922e-10 0 6.36597e-10 
0 0 0 0 0 0 4.11723e-09 3.42287e-09 0 
1.36889e-09 0 0 6.93904e-07 0 1.83168e-09 6.93741e-10 0 0 
4.0606e-09 0 0 0 3.66926e-10 2.62872e-09 0 0 7.39021e-10 
2.10236e-10 0 0 0 0 0 0 0 2.0933e-12 
3.99297e-12 0 2.7644e-12 0 1.32138e-12 0 0 6.85856e-12 0 
0 0 3.33162e-12 1.53408e-09 1.47892e-12 2.01995e-09 3.29332e-12 0 0 
0 0 0 7.89311e-13 1.04203e-12 5.95308e-12 0 0 0 
0 7.63778e-12 0 0 0 0 6.87343e-07 0 0 
0 0 0 0 0 0 0 0 3.46929e-09 
0 0 8.8769e-10 0 0 2.08356e-12 0 4.22193e-10 7.32898e-12 
0 0 0 0 0 0 0 0 0 
2.28023e-10 0 1.57541e-09 9.26143e-13 0 2.59152e-09 5.27702e-09 0 0 
0 3.95383e-10 0 0 9.59869e-09 4.14388e-09 0 0 0 
0 1.65365e-09 3.74461e-12 0 0 0 0 1.32599e-09 1.95902e-09 
0 6.61568e-10 0 0 0 0 2.20386e-12 0 0 
0 0 4.74849e-13 0 0 3.34124e-12 0 1.14101e-12 0 
6.72436e-12 0 0 0 2.59316e-10 3.79608e-12 6.82923e-07 4.6075e-09 4.00311e-09 
0 0 0 0 1.71023e-10 0 0 0 0 
0 0 0 0 0 1.3382e-09 2.36261e-09 0 0 
0 0 6.25732e-10 0 0 0 7.45969e-10 1.45675e-09 1.76449e-09 
2.69156e-09 0 1.63137e-12 9.90373e-10 0 0 1.66958e-09 7.19668e-07 0 
0 8.85113e-10 0 0 0 2.08365e-12 0 0 0 
0 0 0 0 0 0 0 0 0 
0 2.21138e-10 0 9.62572e-10 1.10802e-12 0 1.33454e-12 0 1.27288e-09 
0 0 3.72312e-12 4.32062e-09 0 0 0 7.00612e-07 0 
0 9.37255e-13 0 0 2.62237e-12 0 0 0 0 
0 1.02608e-12 0 0 2.44249e-12 0 6.57399e-12 0 0 
0 0 0 0 8.53983e-10 0 0 0 0 
1.05072e-10 0 0 0 0 2.78344e-10 2.00664e-10 3.64232e-12 4.14608e-12 
0 0 0 0 4.58532e-10 0 0 0 0 
0 0 8.29574e-10 6.85889e-10 6.12408e-11 0 0 0 0 
0 0 7.63311e-11 0 6.99478e-10 0 0 2.60909e-12 0 
0 0 0 0 0 2.0239e-12 5.53104e-11 0 0 
0 1.85503e-10 0 0 0 6.87407e-07 4.92294e-09 4.84319e-09 2.37975e-12 
0 0 9.37953e-11 0 0 0 0 0 0 
4.10433e-09 0 6.96931e-07 3.36052e-09 0 2.13894e-09 0 0 0 
0 0 0 0 0 0 0 0 0 
0 0 0 0 6.80277e-13 0 0 0 0 
0 0 0 0 0 0 3.54607e-11 0 0 
1.77104e-09 9.77456e-10 0 3.29555e-11 0 0 0 0 0 
0 0 2.5555e-10 0 6.88825e-10 0 0 0 0 
1.47035e-09 0 1.08502e-09 0 0 0 0 5.26434e-10 3.58848e-12 
0 0 4.87289e-12 1.7277e-09 0 0 0 0 4.77845e-09 
0 0 0 1.05959e-06 9.79728e-07 0 9.52676e-10 0 4.81617e-14 
0 0 4.61106e-10 0 3.59384e-12 0 0 0 0 
1.20586e-09 1.36141e-09 3.27696e-11 1.61958e-10 5.16424e-12 0 7.52025e-10 0 0 
0 4.33785e-12 1.17007e-09 0 0 5.55023e-10 0 0 5.46984e-10 
0 0 6.10315e-12 3.04777e-10 3.54966e-12 0 6.19375e-12 0 0 
0 0 0 0 0 0 0 0 7.76123e-13 
0 0 0 0 0 0 0 2.00768e-12 2.62309e-09 
1.04364e-09 0 0 0 0 0 0 0 0 
0 0 0 0 0 0 0 9.6687e-10 7.00369e-10 
0 4.32997e-10 6.0369e-10 2.31503e-10 0 0 0 7.47333e-10 3.32895e-10 
7.15334e-10 0 2.15939e-10 0 0 0 0 0 0 
0 0 1.81711e-12 8.91157e-07 0 0 8.10903e-09 0 4.10802e-12 
0 0 0 0 0 0 0 8.15799e-10 7.8896e-10 
0 0 7.58604e-10 0 0 2.76082e-12 0 0 0 
3.233e-09 1.06967e-09 0 0 0 0 1.31836e-09 4.44155e-10 0 
0 0 0 0 0 0 4.83587e-11 0 0 
0 0 0 0 0 0 0 0 0 
0 0 0 0 4.38426e-12 0 0 0 7.63364e-10 
0 0 0 0 6.51997e-10 0 0 0 0 
0 0 0 0 0 0 2.21297e-09 0 5.09516e-10 
1.45812e-11 1.47234e-11 0 0 0 1.03857e-12 4.67885e-09 6.85604e-07 0 
0 0 0 0 2.00805e-09 0 1.56602e-12 0 0 
7.11972e-07 0 4.19354e-09 0 0 0 3.90592e-12 0 0 
0 0 0 0 0 0 0 0 0 
5.18147e-10 5.19011e-12 6.59696e-10 0 0 0 0 0 5.61359e-09 
7.07175e-07 6.68943e-12 0 1.23268e-09 1.0885e-09 0 0 1.63451e-12 1.75452e-12 
0 6.96764e-07 0 0 3.54864e-11 0 3.06792e-12 0 0 
0 0 0 0 0 0 0 0 0 
4.38115e-12 0 0 0 0 0 0 2.24071e-10 0 
0 0 2.3393e-12 6.71996e-09 4.79509e-12 5.13769e-12 0 0 0 
0 0 0 0 2.12039e-12 6.79973e-09 7.20947e-07 0 0 
0 8.36685e-10 0 1.04225e-09 0 0 3.61539e-12 3.68901e-09 0 
2.91312e-09 1.78981e-10 0 1.01077e-10 9.40871e-13 0 0 0 0 
0 6.3527e-09 0 4.3062e-13 0 0 5.425e-12 4.00619e-09 0 
0 9.91175e-10 0 0 0 0 1.15121e-11 0 3.27008e-11 
2.16771e-10 0 0 0 0 3.94432e-10 0 3.09102e-12 0 
0 0 5.10508e-10 2.94315e-09 0 0 2.10512e-12 0 2.28273e-09 
0 0 0 2.73431e-12 0 0 0 0 0 
6.96369e-12 0 0 0 0 0 0 0 0 
0 0 1.77104e-12 0 0 0 2.02868e-12 0 0 
0 0 0 0 0 0 0 0 0 
4.69645e-10 0 0 0 7.21717e-07 0 0 0 5.65053e-09 
3.78245e-12 0 0 5.71039e-10 0 0 0 3.98632e-09 7.31977e-12 
0 2.67404e-09 0 2.16008e-12 0 1.61136e-10 1.41604e-09 9.78503e-13 0 
4.9299e-09 3.67617e-09 0 0 0 3.31736e-12 0 2.02407e-09 0 
4.08257e-12 0 0 9.69813e-10 0 0 4.54137e-10 0 3.11807e-12 
0 0 0 9.92827e-11 0 0 0 0 2.28936e-09 
0 0 0 3.0475e-13 0 2.66299e-09 0 0 5.62034e-09 
0 5.30271e-10 2.80834e-09 0 0 0 1.1975e-09 0 0 
0 0 7.00661e-11 0 0 0 3.54658e-12 0 2.50985e-12 
1.49866e-12 0 0 0 0 0 0 0 0 
0 0 0 6.96413e-10 2.13635e-09 0 0 0 1.14486e-09 
0 0 0 0 0 0 1.33613e-09 0 0 
0 2.29262e-09 0 1.80693e-09 0 0 4.10358e-09 0 0 
2.57369e-09 0 9.06548e-10 6.03287e-10 1.61441e-12 0 0 3.69744e-12 0 
0 2.60435e-09 1.52046e-09 0 0 1.53339e-09 0 6.80902e-13 1.20169e-09 
0 4.01834e-12 1.92923e-09 7.09351e-07 5.37909e-09 0 1.87596e-10 8.55443e-10 4.71547e-12 
7.40747e-12 0 3.64409e-12 0 0 0 3.1152e-12 0 9.21064e-11 
0 0 0 2.55049e-12 0 0 0 0 0 
6.91673e-07 2.62816e-12 3.76933e-12 0 2.0597e-09 0 0 0 3.89186e-10 
0 0 1.952e-10 0 0 0 2.63069e-12 0 0 
4.16788e-12 0 0 0 0 2.51618e-12 0 0 0 
0 0 0 7.87129e-10 0 0 0 0 1.11942e-09 
6.01236e-10 0 0 3.42098e-09 0 3.46934e-12 0 0 0 
2.39526e-09 2.65513e-09 0 4.05618e-09 0 3.81863e-09 3.18427e-12 7.03752e-07 0 
4.6545e-12 0 0 0 0 2.54244e-09 1.49987e-09 1.40362e-12 0 
1.04213e-09 2.53565e-09 0 0 0 3.65833e-11 0 0 0 
0 0 4.3928e-12 0 0 0 0 0 1.00965e-09 
0 1.81654e-12 0 7.97515e-12 0 2.61636e-12 0 0 0 
0 0 0 1.05648e-06 1.16612e-06 0 0 0 0 
0 0 0 0 4.30316e-10 6.31505e-12 3.01764e-12 6.43815e-14 0 
0 0 0 0 0 5.6556e-11 9.67195e-12 0 0 
9.42166e-13 0 0 0 0 0 0 0 0 
0 0 2.36377e-12 0 3.53931e-10 0 0 2.89308e-12 0 
0 8.54118e-10 0 0 0 0 2.37746e-09 0 2.12547e-09 
0 0 0 0 5.67325e-12 2.53575e-12 0 0 2.20739e-09 
2.59896e-09 6.41742e-12 0 0 0 7.13798e-07 1.98198e-09 1.39191e-09 1.80853e-09 
0 0 0 0 0 1.27594e-11 2.49493e-10 2.87562e-12 0 
1.02623e-09 0 0 5.91901e-12 0 0 3.95172e-09 0 5.77561e-10 
0 0 3.51421e-10 5.82493e-11 0 0 0 0 8.10575e-12 
6.09335e-12 7.56165e-11 0 0 6.12071e-12 1.01797e-06 0 0 4.48635e-09 
1.78866e-09 0 0 0 0 1.30578e-09 5.57451e-12 0 8.18505e-07 
7.36251e-13 0 1.64753e-09 0 0 0 0 0 0 
1.47396e-12 0 0 8.10722e-13 0 0 0 0 0 
5.1981e-12 0 0 4.24469e-11 3.14611e-12 0 0 2.18442e-12 3.76472e-10 
0 1.04741e-10 0 0 5.85302e-10 0 0 0 1.10762e-09 
0 2.76275e-09 0 3.89384e-12 7.93631e-07 0 2.36466e-09 0 3.34482e-09 
9.68923e-10 0 0 4.39538e-09 1.73694e-10 0 0 4.93076e-12 0 
0 0 4.94654e-10 0 0 0 0 8.94604e-10 0 
0 2.2987e-12 0 0 0 0 0 7.23411e-07 1.54948e-12 
0 2.30122e-09 4.59581e-10 3.70899e-11 3.78422e-12 0 0 0 0 
0 0 0 1.65636e-09 0 0 0 0 4.3637e-12 
2.67302e-09 4.26434e-09 1.38047e-12 6.12636e-10 0 0 0 0 0 
0 8.22761e-07 0 0 0 0 0 0 0 
0 0 0 0 0 0 0 0 0 
2.68154e-12 0 2.20294e-12 0 0 0 0 0 0 
1.50822e-10 0 0 2.95467e-10 0 6.09048e-09 7.40737e-07 3.69656e-09 0 
4.28442e-09 1.38846e-11 7.1038e-10 2.52255e-09 3.7411e-12 0 4.34617e-12 0 1.89167e-09 
0 0 4.42858e-09 7.05158e-07 0 1.19847e-09 0 1.507e-09 0 
0 0 0 0 1.73133e-09 0 0 5.88981e-10 0 
0 0 2.59632e-09 8.15589e-07 9.18457e-09 0 0 0 0 
1.93094e-09 0 0 0 0 0 0 0 0 
0 4.87805e-10 0 0 0 0 1.07454e-09 0 9.1151e-10 
5.60413e-12 7.09331e-07 0 0 0 1.5585e-09 0 6.76434e-10 0 
5.44229e-12 0 5.32733e-12 0 0 1.53861e-10 0 0 0 
3.0851e-12 0 2.65698e-12 0 0 0 0 0 0 
0 0 0 0 0 0 0 0 0 
0 0 0 6.71384e-10 0 7.05032e-14 3.1285e-09 2.8971e-12 0 
0 2.47493e-12 0 7.36949e-10 0 0 6.51565e-10 0 0 
8.55248e-12 0 1.33559e-09 0 0 1.09907e-08 1.39629e-14 0 0 
0 0 2.36742e-09 0 0 2.97429e-09 0 0 0 
0 1.69224e-10 0 0 0 8.18093e-07 2.28486e-12 1.69305e-09 0 
0 0 1.23682e-09 4.7741e-09 0 0 0 0 0 