# vtk DataFile Version 5.1
vtk output
ASCII
DATASET STRUCTURED_POINTS
DIMENSIONS 50 50 1
SPACING 1 1 1
ORIGIN 0 0 0
POINT_DATA 2500
FIELD FieldData 6
feature_1 1 2500 float
0 0 0 0 1.12698e-09 1.26184e-10 0 0 0 
0 0 0 0 0 0 0 0 0 
0 0 0 0 0 0 1.17901e-09 0 0 
0 0 0 0 0 0 0 0 0 
0 0 0 0 0 0 0 0 2.43972e-10 
0 0 0 0 0 0 0 0 0 
0 0 9.39199e-10 0 2.07028e-10 0 0 0 0 
0 0 0 0 0 0 0 0 0 
0 0 0 0 0 0 0 0 0 
0 0 0 0 0 0 0 0 0 
2.85873e-10 0 0 7.23709e-10 0 0 0 8.26503e-10 8.79847e-10 
0 0 0 0 0 0 0 0 0 
0 0 0 0 0 0 0 0 0 
0 0 0 0 0 0 0 0 0 
0 1.36207e-11 0 0 0 0 0 0 0 
0 0 0 0 0 0 0 0 0 
0 7.30607e-10 0 0 0 0 0 0 0 
0 0 7.76396e-10 0 0 0 0 0 0 
0 0 0 0 0 0 0 0 0 
0 0 0 0 0 0 0 0 0 
0 0 0 0 0 0 0 0 0 
0 0 0 0 0 0 0 0 0 
0 0 0 0 0 0 0 0 0 
0 0 0 0 0 0 0 0 0 
0 0 0 0 2.17163e-10 0 0 5.05512e-10 5.31585e-10 
0 0 0 0 0 0 0 0 0 
0 0 0 0 0 0 0 0 0 
0 0 0 0 0 0 0 0 5.13825e-10 
0 0 0 0 0 0 0 0 0 
0 0 0 0 0 0 0 0 0 
0 0 0 0 0 0 0 0 0 
0 0 0 7.15925e-10 0 0 0 0 0 
0 0 0 0 0 0 0 0 0 
0 0 0 0 0 0 0 0 0 
0 6.94655e-10 0 0 0 0 0 0 0 
0 0 0 3.70691e-10 0 0 0 0 0 
0 0 0 0 0 0 0 0 0 
0 0 0 0 0 2.25521e-10 0 0 0 
0 0 0 0 0 0 0 0 0 
0 0 0 0 0 0 0 8.65292e-10 0 
0 0 0 9.4559e-11 0 0 0 0 2.69101e-08 
9.71227e-10 0 0 0 0 0 0 0 6.77223e-06 
5.07179e-08 0 0 0 0 0 0 0 0 
0 0 0 0 0 0 0 0 0 
0 0 0 0 0 0 0 0 0 
0 0 0 6.78034e-06 0 0 0 0 0 
0 0 0 0 6.79197e-06 0 0 0 0 
0 0 0 0 0 0 0 0 0 
0 4.17973e-10 0 0 0 0 0 0 0 
0 0 0 0 0 0 0 0 0 
0 0 0 0 0 0 0 0 9.51701e-11 
0 0 0 0 0 0 0 0 2.94101e-08 
0 0 0 0 0 0 0 0 0 
0 0 2.36652e-09 0 0 0 0 0 0 
0 0 0 0 0 0 0 0 0 
0 0 0 0 0 0 0 0 0 
4.17447e-10 0 0 0 0 0 0 0 0 
0 0 0 7.18697e-06 0 5.26658e-10 0 0 0 
0 0 0 0 0 0 0 0 0 
0 0 3.12105e-08 0 1.11513e-09 0 0 0 0 
6.8723e-06 0 0 0 0 7.12049e-10 0 0 0 
0 0 0 0 6.17735e-10 0 0 0 0 
0 0 7.19091e-06 0 0 7.02481e-06 0 7.35817e-06 7.42617e-10 
0 0 0 3.23556e-10 0 0 0 0 0 
0 0 0 0 0 0 8.09855e-06 8.39598e-06 0 
0 3.79114e-08 6.88831e-06 0 0 3.33086e-08 0 0 0 
0 0 0 0 0 0 0 0 0 
0 0 0 0 0 6.08861e-08 7.1684e-06 0 0 
0 0 0 0 0 0 0 0 0 
0 0 0 0 4.62279e-10 0 0 0 0 
0 1.44478e-09 0 0 7.25403e-06 0 0 3.50195e-08 0 
6.93526e-06 0 0 0 0 0 0 0 0 
0 0 0 6.43748e-10 0 0 0 0 0 
0 1.52931e-08 0 0 0 0 0 0 0 
0 0 0 0 0 0 0 0 6.80419e-06 
0 0 6.81052e-06 0 0 0 0 0 0 
0 8.14349e-10 0 0 0 0 0 0 0 
0 0 9.08237e-10 0 0 0 0 0 0 
0 0 0 0 0 3.34254e-10 0 0 0 
0 0 0 0 0 0 0 0 0 
0 1.79213e-10 0 0 2.24201e-08 0 0 5.34061e-08 0 
0 0 0 0 0 0 0 0 0 
0 0 0 0 0 0 0 0 0 
0 0 0 0 0 0 0 0 0 
0 0 4.20872e-10 0 0 6.91629e-06 0 2.59578e-07 7.38909e-06 
0 0 0 0 0 0 0 0 0 
0 0 0 0 0 0 0 6.87012e-06 6.57237e-08 
0 0 0 0 0 0 0 0 0 
0 0 0 0 0 0 0 0 1.47112e-09 
0 0 0 0 0 0 0 0 0 
0 4.7355e-08 0 7.64023e-06 0 0 0 0 0 
6.25629e-10 1.67703e-08 6.79927e-06 3.18369e-08 0 0 0 4.25899e-10 0 
0 0 0 0 5.73967e-08 0 0 0 0 
0 0 0 0 0 0 0 0 0 
0 0 0 0 0 0 0 0 0 
0 0 0 4.63368e-10 0 0 0 0 0 
7.45472e-06 0 0 7.24194e-09 0 1.39967e-09 0 0 0 
0 0 2.2212e-08 0 0 0 8.59542e-09 0 0 
0 0 0 0 6.12118e-07 0 0 0 0 
4.90306e-10 0 1.64952e-11 2.64755e-10 0 0 0 6.46239e-10 0 
6.00918e-10 0 0 1.28639e-09 0 0 0 0 0 
0 0 6.83939e-06 0 0 0 3.88474e-08 0 0 
0 0 0 0 0 0 0 0 6.97828e-06 
0 0 0 0 0 8.1086e-06 0 0 7.50119e-06 
0 7.5607e-06 0 0 0 0 7.67837e-10 0 0 
0 0 0 0 0 0 0 0 0 
0 0 0 0 0 0 0 0 0 
0 0 7.07952e-06 0 7.22913e-06 7.39188e-08 8.60337e-06 9.30525e-06 0 
0 0 0 4.9209e-08 0 0 0 0 0 
0 5.64516e-08 0 0 0 7.99596e-06 0 0 0 
0 0 0 0 0 0 0 0 0 
0 0 0 7.35419e-10 0 0 0 0 0 
0 0 0 0 0 0 0 0 0 
0 0 0 8.414e-06 4.26691e-08 1.16783e-09 0 0 0 
0 0 0 0 0 0 0 0 7.41807e-06 
0 0 7.43909e-06 0 0 0 0 0 0 
0 0 0 0 0 0 0 0 0 
0 0 0 0 0 0 0 0 0 
0 0 0 0 0 0 0 0 3.12002e-08 
0 0 0 0 0 0 0 0 0 
0 7.09012e-06 0 7.53811e-06 0 0 0 2.94632e-08 0 
0 0 0 0 0 0 0 0 0 
0 0 0 0 0 0 0 0 2.50755e-08 
8.01398e-06 8.01949e-06 0 0 0 0 0 6.78852e-06 0 
0 0 0 0 2.00271e-08 0 0 0 0 
0 0 0 0 0 0 0 0 6.98895e-08 
0 0 0 0 0 0 0 0 0 
0 0 0 0 0 0 0 0 0 
0 0 0 0 1.62273e-08 0 0 0 0 
0 0 0 4.41845e-08 0 0 3.20404e-08 6.86397e-06 0 
0 0 0 0 0 0 7.18344e-06 0 0 
0 0 0 7.13946e-06 0 7.12173e-06 0 0 6.83548e-06 
2.74659e-08 0 0 0 1.0201e-09 0 0 0 0 
0 0 0 0 0 0 0 0 0 
0 0 0 0 0 0 0 0 0 
0 0 0 0 0 0 0 0 0 
0 0 0 7.20034e-06 0 0 0 0 0 
0 1.39799e-08 0 0 0 0 0 0 0 
0 0 0 0 0 0 0 0 0 
0 0 0 0 0 0 0 0 0 
0 0 0 0 0 0 0 0 0 
6.95414e-06 0 0 0 0 8.21156e-06 0 0 0 
0 0 0 0 0 0 0 1.05238e-08 0 
0 0 0 0 0 0 4.28278e-10 0 0 
0 0 0 0 0 0 0 0 0 
0 0 0 0 0 0 0 0 0 
0 0 0 0 9.26089e-10 0 0 2.18924e-08 7.53084e-06 
3.14697e-06 8.6151e-06 0 0 0 0 0 0 0 
0 6.64368e-10 0 0 0 0 0 0 0 
3.2622e-08 0 0 0 0 0 0 0 0 
0 0 0 0 0 0 0 0 0 
0 0 0 0 0 0 0 0 0 
0 0 6.97171e-06 0 0 7.64583e-06 0 0 0 
6.90795e-06 0 0 0 1.87793e-08 0 0 0 0 
0 0 0 0 6.76967e-06 3.30019e-08 0 0 0 
0 0 0 2.50763e-10 0 0 0 0 0 
0 0 0 0 0 0 0 0 6.72833e-08 
0 0 0 0 0 0 0 0 0 
0 0 0 0 0 0 0 7.0559e-06 0 
6.70356e-06 0 0 0 6.79735e-06 0 5.98593e-10 0 0 
0 0 0 0 0 0 0 0 0 
0 0 0 0 0 0 0 0 0 
6.88084e-06 0 0 0 6.87687e-06 0 0 0 0 
0 0 0 0 0 0 0 0 0 
0 0 0 2.54331e-08 0 0 0 0 0 
0 0 8.41926e-10 3.73976e-11 0 0 0 0 0 
0 0 0 0 0 0 0 0 0 
0 0 0 0 0 0 0 8.17851e-06 0 
0 0 0 3.55778e-09 0 0 0 0 0 
0 0 0 0 0 0 0 0 0 
0 0 2.91207e-08 6.81546e-06 1.37013e-08 0 0 0 0 
0 0 0 0 0 0 0 0 0 
0 0 0 0 0 0 0 0 0 
0 0 0 8.05714e-06 0 0 0 0 0 
0 0 0 6.7944e-06 1.08644e-09 0 0 0 0 
0 0 0 0 0 0 0 0 0 
0 0 0 0 0 0 0 0 0 
0 0 0 0 0 0 0 0 0 
0 0 0 0 0 0 0 0 0 
0 4.4157e-10 0 0 0 0 0 1.24673e-09 0 
0 0 8.27651e-10 0 0 0 0 0 0 
4.86645e-08 0 0 0 0 0 0 0 1.23863e-09 
7.2329e-06 0 0 0 0 0 0 0 0 
0 0 1.0289e-09 0 0 0 0 0 0 
0 0 0 0 0 0 0 6.78309e-06 3.95143e-10 
1.14297e-08 0 1.26503e-10 0 0 0 0 0 0 
0 0 0 0 3.16794e-08 6.78025e-06 4.31699e-08 0 0 
0 0 0 0 7.18632e-06 0 1.05165e-07 6.88694e-06 0 
0 0 0 0 0 0 0 0 0 
0 0 0 0 0 0 0 0 0 
0 0 0 0 0 0 0 3.99903e-08 6.88322e-06 
4.02027e-08 0 0 0 0 0 3.66347e-08 0 0 
0 0 0 0 0 0 0 0 0 
0 0 1.62584e-08 0 0 0 0 0 0 
0 0 0 0 0 0 0 0 0 
3.50376e-10 0 0 6.77717e-06 0 0 0 0 0 
0 0 0 0 0 0 0 0 0 
0 0 6.96502e-06 4.60709e-08 0 0 0 0 0 
0 1.36863e-09 0 0 0 0 0 0 0 
0 0 0 0 0 0 0 0 0 
0 0 0 0 0 0 0 0 0 
0 0 0 0 0 1.31255e-10 0 8.03147e-06 3.59243e-10 
0 2.64208e-10 1.92891e-10 0 8.02716e-06 8.10413e-06 0 0 0 
6.98901e-06 0 0 0 0 0 0 0 0 
0 0 0 0 0 0 0 0 0 
0 0 0 0 0 0 0 0 0 
0 0 5.65038e-10 0 0 0 2.40583e-10 0 0 
6.99146e-10 0 0 0 0 0 0 4.68258e-10 0 
0 0 0 0 3.83011e-08 0 7.10664e-10 0 0 
0 0 0 0 7.6361e-10 1.20511e-09 0 0 0 
0 0 0 0 0 0 0 0 0 
0 0 0 0 0 0 0 0 0 
0 0 1.7568e-08 0 0 0 3.57404e-10 0 0 
0 0 0 0 0 0 0 0 0 
8.4403e-06 0 8.30967e-08 7.21721e-06 0 0 0 0 0 
0 0 0 6.40924e-10 0 0 0 0 0 
0 0 0 0 0 0 0 0 0 
0 0 0 0 0 2.25197e-08 6.80336e-06 0 0 
7.00212e-06 0 0 0 0 0 0 0 0 
0 1.12888e-09 0 0 6.20126e-10 8.84686e-06 0 7.489e-06 0 
0 0 0 0 3.26924e-10 0 0 0 1.13668e-08 
2.73859e-08 0 0 0 1.48339e-08 0 0 0 0 
0 0 2.6203e-10 0 0 1.01128e-10 0 0 8.93461e-10 
0 0 0 0 0 5.48371e-08 0 0 0 
0 0 0 1.07256e-11 0 0 0 6.8418e-06 0 
0 0 0 0 0 0 0 0 0 
0 8.17742e-06 0 0 0 6.91103e-06 0 0 6.88245e-06 
6.06221e-10 0 0 0 5.03498e-10 3.56106e-10 0 9.03077e-10 0 
0 0 0 0 1.26887e-09 9.99805e-10 0 0 0 
2.81978e-08 6.97888e-06 0 0 0 0 0 0 0 
0 0 0 0 0 0 0 0 0 
3.54638e-08 0 0 0 7.05606e-06 0 8.421e-06 0 7.1479e-06 
0 0 0 0 0 0 0 0 0 
0 0 0 0 0 0 0 0 0 
0 0 0 0 0 0 0 0 0 
0 0 0 0 0 7.02126e-10 0 0 0 
0 0 0 0 0 6.79292e-06 2.35653e-08 0 0 
6.28821e-08 0 4.27877e-08 0 0 0 0 3.12971e-08 6.87224e-06 
0 0 0 0 0 0 4.5998e-10 0 0 
0 0 0 0 0 0 0 0 0 
0 0 0 0 0 0 0 0 0 
0 0 0 0 4.36369e-10 0 0 0 0 
0 0 0 0 0 0 0 0 0 
0 0 0 0 0 0 0 0 0 
0 0 0 0 0 0 0 0 0 
0 0 0 0 0 0 0 0 0 
0 0 0 0 0 0 0 0 0 
0 0 0 0 0 0 1.95611e-08 0 0 
0 6.80259e-10 0 0 0 0 0 0 0 
0 0 0 0 0 0 0 0 0 
0 0 0 0 0 0 0 1.06035e-09 0 
0 0 0 0 0 0 0 0 0 
0 0 0 0 0 0 0 0 0 
0 0 0 0 0 0 0 0 0 
0 0 0 0 0 6.92586e-09 0 7.18803e-10 0 
0 0 0 0 0 0 0 0 0 
0 0 0 0 0 0 0 0 0 
0 0 0 0 0 0 0 0 0 
0 0 0 0 0 0 0 0 0 
0 0 0 0 0 0 0 0 0 
0 0 0 1.04645e-09 0 0 0 0 0 
0 0 0 0 0 0 0 0 0 
0 0 0 0 0 0 0 0 0 
0 0 0 0 0 0 0 0 0 
0 0 0 0 0 0 9.54568e-10 0 1.00274e-09 
0 0 0 0 0 0 0 0 0 
0 0 0 0 0 0 0 0 0 
0 0 0 0 0 0 0 0 0 
0 3.34648e-10 0 0 0 0 0 4.39549e-10 0 
0 0 0 0 0 0 0 0 0 
0 0 0 0 0 0 0 0 0 
0 0 0 0 0 0 0 0 0 
0 0 0 0 0 0 0 0 0 
0 0 0 0 0 7.7852e-10 0 0 0 
0 0 0 0 0 0 0 0 3.43836e-10 
0 0 0 0 0 0 0 0 0 
0 0 0 0 0 0 0 0 0 
0 0 0 0 0 0 0 
feature_2 1 2500 float
0 0 0 0 0 0 0 0 0 
0 0 0 0 0 0 0 0 0 
0 0 0 0 0 0 0 0 0 
0 0 0 0 0 0 0 0 0 
0 0 0 0 0 0 0 0 0 
0 0 0 9.27853e-10 0 0 0 0 0 
0 0 0 0 0 7.64885e-10 3.5196e-10 0 0 
0 0 0 0 0 0 0 0 0 
0 0 0 0 0 0 0 0 0 
0 0 0 0 0 0 4.38753e-10 0 0 
0 0 0 0 0 0 0 0 0 
2.70182e-08 0 0 0 0 0 0 0 0 
0 0 0 0 0 0 0 0 0 
0 0 0 0 0 0 0 0 0 
0 0 0 0 0 0 0 0 0 
4.5306e-10 0 0 0 0 0 0 0 0 
0 0 0 0 0 0 0 0 0 
0 0 0 0 0 0 0 0 0 
0 0 0 0 0 0 0 0 0 
0 0 0 0 0 0 0 0 0 
0 0 0 0 0 0 0 0 0 
0 3.44219e-10 0 0 0 0 0 3.78215e-10 0 
0 0 0 0 0 0 0 0 0 
0 0 0 5.06401e-10 0 0 0 0 0 
0 0 0 0 0 0 0 0 0 
0 0 9.47757e-10 3.09713e-10 0 0 0 0 0 
0 1.06032e-09 0 0 0 0 0 0 0 
0 0 1.45034e-08 0 0 0 0 0 0 
0 0 0 0 0 0 0 0 0 
0 0 0 0 8.20684e-10 0 0 0 0 
0 0 0 0 0 0 0 0 0 
0 0 4.50338e-10 0 0 6.16982e-11 0 0 0 
0 0 0 0 0 0 0 0 0 
0 0 0 0 0 0 0 0 0 
0 0 0 0 0 0 0 0 0 
0 0 0 0 0 0 0 8.31047e-10 0 
0 0 0 0 0 0 0 0 0 
0 0 1.09656e-08 0 0 0 0 0 0 
0 0 0 0 0 0 0 0 0 
0 0 0 0 0 0 0 1.22672e-10 0 
0 0 0 0 0 0 0 0 0 
0 0 0 0 0 0 0 0 0 
0 0 0 0 0 0 0 0 0 
0 0 0 0 0 0 6.43261e-10 4.45441e-10 0 
0 0 0 0 0 0 1.77919e-08 0 0 
0 0 0 9.44819e-08 0 0 1.42812e-10 0 0 
0 0 0 0 0 0 0 0 0 
0 0 0 0 0 0 0 0 0 
0 0 0 0 0 0 0 0 0 
0 0 0 0 0 0 0 0 0 
0 0 0 0 0 0 0 0 0 
0 0 0 0 0 0 0 0 0 
0 0 0 0 0 0 0 0 0 
0 0 0 0 0 0 0 0 0 
0 0 0 0 0 0 0 0 0 
0 0 7.14719e-10 0 0 0 0 0 0 
0 0 0 0 0 0 0 0 0 
0 0 0 0 0 0 0 9.2281e-10 0 
0 0 0 0 0 0 0 0 0 
0 0 0 0 0 0 0 0 0 
0 0 0 0 0 0 0 0 0 
0 0 0 0 0 0 0 0 0 
9.25116e-10 0 0 0 0 0 0 0 0 
0 0 0 0 0 0 0 0 0 
0 0 0 0 0 0 0 0 0 
0 0 1.00278e-09 0 0 0 0 0 0 
0 0 0 0 0 0 0 0 0 
0 0 0 0 0 0 0 7.81579e-11 1.09385e-10 
0 0 0 0 0 0 0 0 0 
0 0 0 0 0 0 0 0 0 
0 0 0 0 0 0 0 0 0 
0 0 0 0 0 0 0 0 0 
0 0 0 0 0 0 0 0 0 
0 0 0 0 0 0 0 4.25292e-10 0 
0 3.37579e-10 0 0 0 7.8129e-10 0 0 0 
0 0 6.83709e-10 0 0 0 0 0 0 
0 0 0 0 0 0 0 0 0 
0 0 0 6.77549e-10 0 0 0 0 0 
0 0 0 0 0 0 1.88826e-09 0 5.31411e-10 
0 0 0 0 0 0 0 0 0 
0 0 3.3765e-10 0 0 0 0 0 0 
0 0 0 0 0 0 0 0 5.56931e-10 
0 0 0 0 0 0 0 0 0 
0 0 0 0 0 0 0 0 0 
5.96437e-10 0 0 0 0 0 0 6.82178e-07 3.23557e-07 
0 0 0 0 0 0 0 0 0 
0 0 0 0 0 0 0 0 0 
0 0 0 0 0 0 0 0 0 
0 0 0 0 0 0 0 0 0 
0 0 0 0 0 0 0 0 0 
0 0 0 1.19383e-07 0 0 0 0 0 
0 5.12266e-10 0 0 0 0 0 0 0 
0 0 0 0 0 0 0 0 0 
0 0 0 0 0 0 0 0 0 
0 0 0 1.03185e-09 0 0 0 0 0 
0 0 0 3.9627e-10 0 0 0 0 0 
0 0 0 0 0 0 0 0 0 
0 0 0 0 0 0 0 0 0 
0 0 0 0 0 0 1.66263e-10 0 0 
0 0 0 0 0 0 0 0 0 
0 0 0 0 0 9.47793e-10 0 0 0 
0 0 6.76632e-10 0 0 0 7.14881e-10 0 0 
0 0 0 0 0 0 0 0 0 
0 1.31834e-09 8.84405e-10 0 4.02075e-10 0 0 0 0 
0 0 0 0 0 1.824e-10 0 0 0 
0 0 0 0 0 0 0 0 0 
0 0 0 5.07949e-10 0 0 0 0 0 
0 0 0 0 0 0 0 0 0 
0 0 0 0 0 0 0 0 0 
2.19682e-10 0 0 0 0 0 0 0 0 
0 0 0 0 0 0 0 0 0 
0 0 0 0 0 0 0 0 0 
0 0 0 0 0 0 0 0 0 
0 0 0 0 0 0 0 0 0 
0 0 0 0 0 0 0 0 0 
0 0 0 0 0 0 0 0 0 
0 0 0 0 0 8.38728e-10 0 0 0 
0 0 0 0 0 0 0 0 0 
0 0 0 0 0 0 0 0 0 
0 0 0 0 0 0 0 0 0 
0 0 0 0 0 0 0 0 0 
0 0 0 0 1.34897e-10 0 0 0 0 
0 0 0 0 0 0 0 0 0 
0 0 0 0 0 0 0 0 0 
0 0 0 0 1.0981e-09 0 0 0 0 
0 0 0 0 0 0 0 0 0 
0 0 0 0 0 0 0 0 0 
0 0 0 1.24585e-09 0 0 0 0 0 
0 0 0 0 0 0 0 0 0 
0 0 0 0 0 0 0 8.12882e-10 0 
0 0 0 0 0 0 0 0 0 
0 0 0 0 0 0 0 0 0 
0 0 0 0 0 0 0 5.6389e-10 0 
0 0 0 0 3.22084e-10 0 0 0 0 
0 0 0 0 0 0 0 2.15824e-09 0 
0 0 0 0 0 0 0 0 0 
0 0 0 0 0 0 0 0 0 
0 0 0 0 0 0 0 0 3.72093e-10 
0 0 0 0 0 0 0 0 0 
0 0 0 0 0 4.7163e-10 0 0 0 
0 0 0 0 0 0 0 0 0 
0 0 0 0 5.55175e-10 0 0 0 1.86116e-10 
0 0 0 0 0 0 0 0 0 
0 0 0 0 0 0 0 0 0 
0 0 0 0 0 0 0 0 0 
0 0 0 0 0 0 0 0 0 
0 2.23983e-08 0 6.7681e-10 0 0 1.04865e-10 0 0 
0 0 0 0 0 0 0 0 0 
0 0 0 0 0 0 0 0 0 
0 0 0 8.00171e-10 0 0 0 0 0 
0 0 0 0 0 0 0 0 0 
0 2.50312e-10 0 0 0 0 0 3.94065e-10 0 
0 0 0 0 0 1.79971e-08 0 0 0 
0 0 0 0 0 0 0 0 0 
0 0 0 4.74937e-10 0 0 0 3.67034e-10 1.19383e-08 
0 0 0 0 0 0 0 0 0 
0 0 0 0 0 0 0 0 0 
0 0 0 0 0 0 0 0 0 
0 0 0 0 0 0 0 0 0 
0 0 0 0 0 0 0 0 0 
0 0 0 0 0 0 0 0 0 
0 0 0 0 0 0 0 0 0 
1.19516e-09 0 0 0 0 0 0 0 0 
0 0 0 0 0 0 0 0 0 
0 0 0 0 0 0 0 0 0 
0 1.72294e-10 0 0 0 0 0 0 0 
0 0 0 0 0 0 0 0 0 
0 0 0 0 0 0 0 0 0 
0 0 0 0 0 0 0 0 0 
0 0 0 0 0 0 0 0 4.72895e-10 
0 0 0 0 0 0 0 0 0 
0 0 0 0 0 8.79901e-10 0 0 0 
0 0 0 0 0 0 0 4.50363e-10 0 
0 0 0 0 0 0 0 0 0 
0 0 7.16618e-10 0 0 0 0 0 0 
0 0 0 0 0 0 0 0 0 
0 0 0 0 0 0 0 0 0 
0 0 0 0 0 0 0 0 0 
0 0 0 0 0 0 0 0 0 
0 0 0 0 0 0 0 5.33898e-10 4.4669e-10 
0 0 0 9.48752e-11 0 0 0 0 0 
0 0 0 0 0 0 0 0 0 
0 0 0 0 0 0 0 0 6.06121e-10 
0 0 1.26708e-11 8.92218e-10 0 1.35985e-09 0 0 0 
0 0 0 0 0 0 0 0 0 
0 0 7.8758e-10 0 0 0 0 0 0 
0 0 0 0 0 0 0 0 0 
0 0 0 0 0 0 0 0 0 
0 0 0 0 0 0 0 0 0 
0 0 0 0 0 0 0 0 0 
0 0 0 0 0 0 0 0 0 
8.09649e-10 0 0 0 0 0 0 0 0 
6.4982e-10 0 0 0 0 0 0 0 0 
0 0 0 0 0 0 0 0 0 
0 0 0 0 0 0 0 0 0 
0 0 0 0 0 0 0 0 0 
0 0 0 0 0 0 0 0 0 
6.11873e-10 0 0 0 0 6.58062e-10 0 0 0 
0 0 0 0 0 0 3.71525e-10 2.67079e-10 0 
0 0 0 0 0 0 0 0 0 
0 6.9871e-10 0 0 0 0 0 0 0 
0 0 0 0 0 0 0 0 0 
0 1.12494e-09 0 0 0 0 0 0 0 
0 0 0 0 0 0 0 0 0 
0 0 0 0 0 0 0 0 0 
1.29646e-09 0 0 0 0 0 0 0 0 
0 2.24812e-10 0 0 0 0 0 0 0 
0 0 0 0 0 0 0 0 0 
0 0 0 8.90264e-10 0 0 0 0 0 
0 0 0 0 0 0 0 0 0 
0 0 0 0 0 0 0 0 0 
1.43474e-09 0 0 0 0 0 0 0 0 
0 0 0 0 0 0 0 0 0 
0 0 0 0 0 0 0 0 0 
1.29658e-09 1.3106e-11 0 0 0 0 0 0 0 
0 0 0 0 0 0 0 0 0 
0 0 0 3.32883e-08 0 0 0 0 1.31571e-08 
0 0 0 0 0 0 0 0 0 
1.38458e-09 0 0 0 0 0 2.66304e-10 0 0 
0 0 0 0 0 0 0 0 4.09557e-10 
0 0 0 0 0 0 0 0 0 
0 0 0 0 0 0 0 0 0 
0 0 0 0 0 0 0 0 0 
0 0 0 0 0 0 0 0 0 
0 0 0 0 0 0 0 0 9.46002e-10 
9.2658e-10 0 0 0 0 0 0 0 0 
0 0 0 0 0 0 0 0 0 
0 5.91072e-10 0 2.92142e-09 1.82477e-08 0 0 0 0 
0 0 0 8.81915e-10 0 0 0 0 0 
0 0 0 0 0 0 0 0 5.97144e-10 
0 0 1.13048e-08 0 0 0 0 0 0 
0 0 0 0 0 0 0 0 0 
0 0 0 0 0 2.20979e-11 0 0 0 
0 0 0 0 0 0 0 0 2.33716e-08 
0 0 0 0 0 0 0 0 0 
0 0 0 0 2.38629e-10 0 0 0 0 
0 0 0 0 0 0 0 0 0 
0 0 0 0 0 0 0 0 0 
0 0 0 3.0634e-10 0 0 0 9.17648e-11 0 
0 0 0 0 0 0 0 0 0 
0 0 0 0 0 0 0 3.63347e-10 0 
0 0 0 0 0 3.74339e-10 0 0 0 
0 0 0 0 0 0 0 0 0 
0 1.16511e-09 0 0 0 0 0 0 0 
0 0 0 0 0 0 0 0 0 
0 0 0 0 0 0 0 0 0 
0 0 0 0 0 0 0 0 0 
0 0 0 7.89537e-10 0 0 0 0 0 
0 0 0 3.26446e-09 0 0 0 5.50342e-10 0 
0 0 0 0 0 0 0 0 0 
0 0 0 0 0 0 0 1.71927e-08 0 
0 0 0 0 0 0 0 0 0 
0 0 0 0 0 0 6.2615e-10 0 0 
0 0 0 0 0 0 0 0 0 
0 0 0 0 0 0 9.79124e-10 0 0 
0 0 0 0 0 0 0 0 0 
0 0 0 5.90255e-10 0 0 0 0 0 
0 0 0 0 0 0 0 0 0 
0 0 0 0 0 0 0 3.28024e-10 0 
0 0 0 0 0 0 0 0 0 
0 7.32374e-10 0 0 0 0 0 0 0 
0 0 9.07225e-10 2.9687e-10 0 0 0 0 0 
0 0 5.07601e-10 0 2.92022e-08 0 0 0 0 
0 0 0 0 0 0 0 0 0 
0 0 0 0 0 0 0 0 0 
0 0 0 0 0 0 0 4.93179e-10 0 
0 0 0 2.25214e-09 0 0 0 0 0 
0 0 0 0 0 0 0 8.64048e-10 0 
0 0 1.18205e-10 0 0 0 0 0 0 
0 0 2.62423e-09 0 0 0 3.02856e-10 0 2.17492e-08 
0 0 0 0 1.80595e-10 0 0 0 0 
0 0 0 0 0 0 0 0 0 
6.32863e-10 0 0 0 0 0 0 0 0 
0 0 0 0 0 0 0 0 0 
0 0 0 0 0 0 0 0 0 
4.33147e-10 0 0 0 4.51031e-10 0 0 0 0 
0 0 0 0 0 0 0 0 0 
0 0 0 0 0 0 0 
feature_3 1 2500 float
0 0 0 0 0 0 0 0 0 
0 0 0 0 0 2.7708e-10 0 0 0 
0 0 0 0 0 0 0 0 1.84386e-11 
0 0 0 0 0 0 0 0 0 
0 0 0 0 0 0 0 0 0 
0 0 0 0 0 1.07269e-09 0 0 0 
0 0 0 0 0 0 0 0 0 
7.06233e-10 0 0 0 0 0 0 0 0 
0 0 0 0 0 0 0 0 0 
0 0 0 0 0 0 0 0 0 
0 0 0 0 0 0 0 0 0 
0 0 0 0 0 0 0 0 0 
0 0 0 0 0 0 0 8.41947e-10 0 
0 0 0 1.3705e-09 0 0 2.73417e-10 0 0 
0 0 0 0 0 0 0 0 0 
0 0 0 5.08408e-10 0 0 0 0 0 
0 0 0 0 0 0 0 0 0 
0 0 0 0 0 0 0 0 0 
0 0 0 0 9.10904e-09 0 0 0 6.28821e-10 
0 0 0 0 0 0 0 0 0 
0 0 0 0 0 0 0 0 0 
0 0 0 0 0 0 0 0 0 
0 6.38405e-10 0 0 0 0 0 0 0 
0 0 0 0 0 0 0 0 0 
0 0 0 0 0 0 0 0 0 
0 0 0 0 0 0 0 0 0 
6.80338e-10 0 0 0 0 0 1.27534e-11 0 1.98561e-10 
1.17502e-10 0 0 0 0 0 3.09122e-11 0 0 
0 0 0 0 0 0 0 0 0 
0 0 0 0 0 0 0 0 4.98903e-11 
0 0 0 0 0 0 0 0 7.38268e-10 
0 0 0 0 0 0 0 0 0 
0 0 0 0 0 0 0 0 0 
0 0 0 0 0 0 0 0 0 
0 0 0 0 0 0 0 0 0 
0 0 0 0 0 0 0 0 0 
0 0 0 0 6.98641e-11 0 0 0 0 
0 0 0 0 0 0 0 0 0 
0 0 0 0 0 0 0 0 0 
0 0 0 0 4.34348e-10 0 0 0 0 
0 0 0 0 0 0 0 0 0 
0 0 0 0 0 0 0 0 0 
0 0 0 0 0 0 0 0 0 
0 0 0 0 0 0 0 0 0 
0 0 0 3.85036e-10 0 0 0 0 8.63025e-11 
0 0 0 0 0 0 0 0 0 
0 0 0 0 0 0 0 0 0 
2.64748e-11 0 0 0 0 0 0 0 0 
0 0 1.99687e-10 0 0 0 0 0 0 
0 0 0 0 0 0 0 0 0 
6.16488e-10 0 0 0 0 0 0 0 0 
0 0 0 0 0 0 0 0 0 
0 0 0 0 0 0 0 0 5.91918e-11 
0 0 0 0 0 0 0 0 0 
0 0 0 0 0 0 0 0 0 
0 0 0 0 0 0 0 0 0 
0 0 0 0 0 0 0 0 0 
0 0 0 0 0 0 0 0 0 
0 0 0 0 0 0 0 0 0 
0 0 0 0 0 0 0 0 0 
0 0 0 0 1.16506e-09 0 0 3.44222e-10 0 
0 0 0 0 0 0 0 0 0 
0 0 0 0 0 0 0 0 0 
0 0 0 0 0 0 0 0 0 
0 0 0 0 0 0 0 0 0 
0 0 0 0 0 0 0 0 0 
0 0 0 0 0 0 0 0 0 
0 0 0 0 0 0 0 0 0 
0 0 0 0 0 0 0 0 0 
0 0 0 0 0 0 0 0 0 
0 0 0 0 0 0 0 0 0 
0 0 0 0 0 0 0 0 0 
0 0 0 4.7892e-10 0 0 0 0 0 
0 0 0 0 0 0 0 0 0 
1.77913e-10 0 0 0 0 0 0 0 0 
0 0 0 0 0 0 0 0 0 
0 2.02149e-11 0 0 0 0 7.18213e-10 0 0 
0 0 0 0 0 0 0 8.27086e-10 0 
0 0 0 0 0 0 0 0 0 
7.58998e-10 0 0 0 0 0 0 0 0 
0 0 0 0 0 0 0 0 0 
0 0 0 0 0 0 2.24848e-10 0 0 
0 0 0 0 2.36319e-10 0 0 0 0 
0 0 0 0 0 0 0 0 0 
0 0 0 0 0 0 0 0 0 
0 0 0 5.5978e-10 0 0 0 0 0 
0 0 0 0 0 0 0 0 0 
0 0 0 0 0 0 0 0 0 
7.05281e-10 0 0 0 0 0 0 0 0 
0 0 0 0 0 0 0 0 0 
0 0 0 0 0 0 0 0 0 
0 0 0 0 0 0 0 0 0 
0 0 0 0 0 0 0 0 0 
0 0 0 0 0 0 0 0 8.43139e-10 
0 9.28459e-10 0 0 0 0 0 0 1.67926e-10 
0 0 0 1.84865e-11 0 0 5.057e-10 0 0 
0 0 0 0 0 0 0 0 0 
0 0 0 0 0 0 0 0 0 
0 0 0 0 1.02376e-07 0 0 0 0 
0 0 0 0 0 0 0 0 0 
0 0 0 0 0 0 0 0 0 
0 0 0 0 0 0 0 0 0 
0 0 5.56671e-10 0 0 0 0 0 0 
0 0 0 0 0 0 0 0 0 
0 0 0 0 0 0 0 0 0 
0 9.24544e-10 0 0 0 0 0 0 0 
0 0 0 0 0 0 0 0 0 
0 0 0 0 0 0 0 0 0 
0 0 0 0 0 0 0 0 0 
0 0 0 0 0 0 0 0 0 
0 0 0 0 0 0 0 0 0 
7.31625e-10 0 0 0 0 1.58455e-10 0 0 0 
0 0 0 0 0 0 0 0 0 
3.7474e-10 0 0 0 0 0 0 0 0 
0 0 0 0 0 0 0 0 0 
0 0 0 0 0 0 0 0 0 
0 0 0 0 0 0 0 0 0 
2.30294e-10 0 0 0 0 0 0 0 0 
0 0 0 0 0 0 0 0 0 
0 0 0 0 0 0 0 0 0 
0 0 0 0 0 0 0 0 0 
0 0 0 0 0 0 1.08569e-09 6.96691e-10 0 
0 0 2.96495e-08 0 0 0 0 0 0 
0 0 0 0 0 0 2.82814e-11 0 0 
0 0 0 0 2.29348e-09 0 0 0 0 
0 0 5.75309e-09 0 0 0 0 0 0 
0 0 0 0 0 0 0 0 0 
0 0 0 0 0 0 0 0 6.69566e-10 
0 8.91642e-11 0 0 0 0 0 0 0 
0 0 0 0 0 0 0 0 9.32515e-10 
0 0 0 0 0 0 0 0 0 
0 0 0 0 0 0 0 0 0 
0 0 0 0 0 0 0 0 0 
0 0 0 0 0 0 0 0 0 
0 0 0 0 0 0 0 0 0 
0 0 0 0 0 0 0 0 0 
0 0 0 0 0 0 0 0 0 
0 0 0 0 0 0 0 0 0 
0 0 0 0 0 0 0 0 6.01814e-10 
0 0 0 0 0 0 0 0 0 
0 0 0 0 0 0 0 0 0 
0 0 0 0 0 0 0 0 0 
0 0 0 0 0 0 0 0 0 
0 0 0 0 0 0 0 0 0 
0 0 0 0 1.32085e-09 1.9724e-08 0 0 2.20418e-08 
0 0 0 0 0 0 0 5.82478e-10 0 
0 1.65072e-08 0 0 0 0 0 0 0 
0 5.71145e-10 0 0 0 0 0 0 0 
0 0 0 0 0 0 0 0 0 
0 0 0 0 0 0 0 0 0 
0 0 0 0 0 0 0 0 1.63809e-10 
0 0 0 0 0 8.4443e-10 0 0 0 
0 0 0 0 0 0 0 0 0 
0 0 0 0 0 4.59213e-10 0 0 0 
0 0 0 0 0 0 0 0 0 
0 7.61819e-10 0 0 0 0 0 0 0 
0 0 0 0 0 0 0 0 0 
0 0 0 0 0 0 0 0 0 
0 0 0 0 0 0 0 0 0 
0 0 0 0 0 0 0 0 0 
0 0 0 0 0 0 0 2.56847e-10 0 
2.74388e-10 0 0 0 0 0 0 0 0 
0 0 3.16604e-10 0 0 0 4.93409e-10 0 0 
0 0 0 0 0 0 0 0 0 
0 0 0 0 0 0 0 0 0 
0 0 0 0 0 0 0 0 0 
0 0 0 0 0 0 0 0 0 
0 0 0 0 0 0 0 8.11827e-10 0 
0 0 0 0 0 0 0 0 0 
0 0 0 0 0 0 0 0 0 
0 0 0 0 0 0 0 0 0 
0 0 0 0 0 0 0 0 0 
0 0 0 0 0 0 0 0 0 
0 0 0 5.92991e-10 0 0 0 0 0 
0 0 0 0 0 0 0 0 0 
0 0 0 0 0 0 0 0 0 
0 0 0 0 0 0 0 0 0 
0 0 0 0 0 0 0 0 0 
0 0 0 0 2.27359e-10 0 0 0 0 
0 0 0 0 0 0 0 0 0 
0 0 0 0 7.35079e-10 6.79371e-10 0 0 0 
0 2.32072e-10 0 0 0 0 0 2.90179e-10 0 
0 0 0 0 0 5.0062e-10 0 0 0 
0 0 0 0 0 0 0 0 0 
0 0 0 0 0 0 0 0 0 
2.97108e-10 0 3.30285e-10 0 0 0 0 0 0 
0 4.06708e-10 0 0 0 0 0 0 0 
0 0 0 0 0 0 0 0 0 
0 0 0 9.44414e-10 0 0 0 0 0 
0 0 0 0 0 0 0 0 0 
0 0 0 0 0 0 0 0 0 
0 0 0 0 0 0 0 0 0 
0 0 0 6.87903e-11 0 0 0 0 0 
0 0 0 0 0 0 0 0 0 
0 0 0 0 0 0 0 0 0 
0 0 0 0 1.18339e-09 0 0 0 0 
0 0 0 0 0 0 0 6.29072e-10 0 
0 0 8.53749e-10 0 0 0 0 0 0 
2.84564e-08 0 0 0 0 0 0 3.586e-10 0 
0 0 0 1.05001e-09 0 0 0 0 0 
1.53489e-08 0 0 0 0 0 0 0 0 
0 0 0 0 0 0 0 0 0 
0 0 0 4.7377e-10 0 0 0 0 6.00465e-10 
0 0 0 0 0 0 0 0 0 
0 0 0 0 0 0 0 0 0 
0 0 0 0 0 0 0 0 0 
0 0 0 0 0 3.64775e-10 0 0 0 
0 0 0 0 0 0 0 0 0 
0 0 0 6.55382e-10 0 0 0 0 0 
0 0 0 0 0 0 0 0 0 
0 0 0 0 0 0 0 0 0 
0 0 0 0 0 0 0 0 0 
0 0 0 0 0 0 0 0 0 
0 0 0 0 0 0 0 0 0 
0 0 0 0 0 0 0 0 0 
0 0 0 0 0 5.34889e-10 0 0 0 
0 0 0 0 0 0 0 0 0 
0 0 0 0 0 5.22091e-10 0 0 0 
0 0 0 0 0 4.4707e-10 0 0 0 
0 0 0 0 0 0 0 0 0 
0 0 0 0 0 0 0 0 0 
0 0 0 0 0 0 0 8.36955e-10 0 
0 0 0 3.69223e-10 0 0 0 0 0 
0 0 0 0 0 0 0 0 0 
0 0 0 0 0 0 0 0 0 
0 0 0 0 0 0 0 0 1.04514e-09 
0 0 0 0 0 0 0 0 0 
0 0 5.63126e-10 0 0 0 0 0 0 
0 0 0 0 0 0 0 0 0 
1.50628e-10 0 0 0 0 0 0 0 0 
0 6.4415e-10 0 0 0 5.22251e-10 0 0 0 
0 0 0 0 0 0 0 0 0 
5.5973e-10 0 0 0 0 9.87832e-10 0 0 0 
0 0 0 0 0 0 0 0 0 
0 0 0 0 0 0 0 0 0 
0 0 0 0 0 0 0 0 0 
0 0 0 0 0 0 0 0 0 
0 0 0 0 0 0 0 0 0 
0 0 0 0 0 0 0 0 0 
0 8.20556e-10 0 0 0 0 0 0 0 
0 0 0 0 0 0 0 3.55897e-10 0 
0 0 0 0 0 0 0 0 8.65455e-10 
0 0 0 0 0 0 0 0 0 
0 0 0 0 0 0 0 0 0 
0 0 0 0 0 0 0 0 0 
0 0 0 0 0 0 0 0 7.24327e-10 
0 0 0 0 0 0 0 0 0 
0 0 1.06717e-09 0 0 0 0 0 0 
0 0 0 0 0 0 0 0 0 
0 0 0 0 0 0 0 0 0 
1.32345e-08 0 0 0 0 0 0 0 0 
0 0 0 0 0 0 0 0 0 
0 0 0 0 0 0 0 0 0 
0 0 0 0 0 0 0 0 0 
0 0 0 0 0 0 0 0 0 
0 0 0 0 0 0 0 0 0 
0 0 0 0 0 0 0 0 0 
0 0 8.30134e-10 0 0 0 0 0 0 
0 0 0 0 0 0 0 0 0 
0 0 0 0 0 0 0 0 0 
0 0 0 0 0 0 0 0 0 
0 0 0 0 0 0 0 0 0 
0 0 0 0 0 0 0 0 3.03153e-10 
0 0 9.66818e-10 0 0 0 0 0 0 
0 0 0 0 0 0 0 0 0 
0 0 0 0 0 0 0 0 0 
0 0 0 0 0 0 0 0 0 
0 0 0 0 0 0 0 0 0 
0 0 0 0 0 0 0 0 0 
0 0 0 0 0 0 0 0 0 
5.43743e-10 0 0 0 0 0 0 0 0 
0 0 5.93346e-10 0 0 0 0 0 0 
0 5.20384e-10 0 0 0 0 0 0 0 
0 0 0 0 0 0 0 0 0 
0 0 0 0 0 0 0 1.21222e-09 0 
0 2.15539e-08 4.20108e-10 0 0 4.97113e-10 0 0 0 
0 0 0 0 0 0 0 0 0 
0 0 0 0 0 0 0 
feature_4 1 2500 float
0 0 0 0 0 0 0 0 0 
0 9.03469e-10 0 1.18481e-09 0 0 0 0 0 
0 0 0 2.75026e-10 0 0 9.48877e-10 0 0 
0 0 0 0 0 0 0 0 0 
0 0 0 0 0 0 0 0 0 
0 0 0 0 0 0 0 0 0 
0 0 0 0 0 0 0 0 0 
0 0 0 0 0 0 0 0 0 
0 0 0 4.69751e-10 0 0 0 0 0 
0 0 0 0 0 0 0 0 0 
0 0 0 0 0 0 0 0 0 
0 0 1.26038e-09 0 0 0 0 0 0 
0 0 0 0 0 0 0 0 0 
0 0 0 0 0 0 0 0 0 
0 2.03677e-10 0 0 0 0 0 0 2.65267e-10 
0 0 0 0 0 0 0 0 0 
0 4.2526e-11 0 0 0 9.50632e-10 6.52182e-10 0 0 
0 0 0 0 0 0 0 0 0 
0 0 0 0 0 0 0 0 0 
0 0 0 0 0 0 0 0 0 
0 0 0 0 0 2.55692e-10 0 0 0 
0 0 0 0 0 0 0 0 3.15573e-10 
0 0 0 0 0 0 0 0 0 
0 0 0 0 0 0 0 0 0 
0 0 0 0 0 0 0 0 0 
0 0 0 0 0 0 0 0 0 
0 0 0 0 0 2.38566e-10 0 0 0 
6.93078e-10 0 0 0 0 0 0 0 0 
0 0 0 0 0 0 0 0 0 
0 0 0 0 0 0 0 0 0 
0 0 0 0 0 0 0 0 0 
0 0 7.88877e-10 0 0 0 0 0 0 
0 0 0 0 0 0 0 0 0 
0 0 0 0 0 0 0 0 0 
0 0 0 0 0 0 0 0 0 
0 0 0 0 0 0 0 7.8543e-10 0 
0 0 0 0 0 0 0 0 0 
0 0 0 0 0 0 0 0 0 
0 0 6.26905e-10 0 0 0 0 0 0 
0 0 0 0 0 0 0 0 0 
0 0 0 0 0 0 0 0 0 
0 0 0 0 0 0 0 0 0 
0 0 0 0 0 0 0 0 0 
0 5.11825e-10 0 0 0 0 0 0 0 
0 0 0 0 0 0 2.69953e-10 0 0 
0 0 0 0 0 0 0 0 0 
0 0 0 0 0 0 0 0 0 
0 0 0 0 0 0 0 0 2.55607e-10 
0 0 0 0 7.25485e-10 0 0 0 0 
0 0 0 0 0 0 0 0 0 
0 0 0 0 0 0 0 0 0 
0 0 0 4.96836e-10 0 0 0 0 0 
0 0 0 0 0 0 0 0 0 
0 0 0 3.19325e-10 0 0 0 0 0 
0 0 0 0 0 0 0 0 0 
0 0 0 0 0 0 0 0 0 
0 0 0 0 0 2.06448e-11 0 0 0 
0 0 0 0 0 0 0 0 0 
0 7.70505e-10 0 0 0 0 0 0 0 
0 0 0 8.66594e-10 0 0 0 0 0 
0 0 0 0 0 0 0 0 0 
0 0 0 0 0 0 0 0 0 
0 0 0 0 0 0 5.94447e-10 0 0 
0 0 0 0 0 0 0 0 0 
0 0 0 0 0 0 0 0 0 
0 0 0 0 0 0 0 0 0 
0 0 8.17714e-10 0 0 0 0 0 0 
0 0 3.70559e-10 0 0 0 0 0 0 
0 0 0 0 0 0 0 0 0 
0 0 0 0 0 0 0 0 0 
0 0 4.85727e-10 0 0 0 0 0 0 
0 0 0 0 0 0 0 0 0 
0 0 0 0 0 0 0 0 0 
0 0 0 0 0 0 0 0 0 
0 0 0 0 0 0 0 0 0 
0 0 0 0 0 0 0 0 0 
0 0 0 0 0 0 0 0 0 
0 0 0 0 0 0 0 0 0 
0 0 0 0 0 0 0 0 0 
0 0 0 0 0 0 0 0 0 
5.2765e-10 0 0 0 0 0 0 0 0 
0 0 0 0 0 0 0 4.40579e-10 1.69981e-10 
0 0 0 0 0 0 0 0 0 
0 0 0 0 0 0 0 0 0 
0 0 0 0 0 0 0 0 0 
0 0 0 0 0 0 0 0 0 
0 0 0 0 0 0 0 0 0 
0 0 0 0 0 0 0 0 0 
0 0 0 0 0 0 0 0 0 
0 0 0 0 0 0 0 0 0 
0 0 3.25215e-10 1.07272e-09 0 0 0 0 0 
0 0 0 0 0 0 0 0 0 
0 0 0 0 0 0 0 0 0 
0 0 0 0 0 0 0 0 0 
0 0 0 0 0 0 0 0 0 
0 0 0 0 0 0 0 0 0 
0 0 0 0 0 0 0 0 0 
0 0 0 0 0 0 0 0 0 
3.49193e-10 0 0 0 0 0 0 0 1.12008e-09 
0 0 0 0 0 0 0 0 0 
0 0 0 0 0 0 1.06171e-09 0 0 
0 0 0 0 0 0 0 0 0 
0 7.56684e-10 0 0 0 0 0 0 0 
1.11173e-09 0 0 0 0 0 0 0 0 
0 0 0 0 0 0 0 0 0 
0 0 0 0 0 0 0 0 0 
0 0 0 0 0 0 0 0 0 
0 0 9.21546e-10 0 0 0 0 0 3.46041e-10 
0 0 0 0 0 0 0 0 0 
0 0 7.58327e-11 0 0 0 0 0 0 
0 0 0 0 0 0 0 0 0 
0 0 0 5.14746e-10 0 0 0 0 0 
0 0 0 0 0 0 0 0 0 
0 0 0 0 0 0 0 0 0 
0 0 0 0 0 0 0 0 0 
0 0 0 0 0 0 0 0 0 
0 0 0 0 0 0 0 0 0 
0 0 0 0 0 0 0 0 0 
0 0 0 0 0 0 0 0 0 
0 0 0 0 0 0 5.02595e-10 5.35206e-10 0 
0 0 0 0 0 0 0 0 0 
0 0 0 0 0 0 0 5.57435e-10 0 
0 0 0 0 0 0 0 0 0 
0 0 0 0 0 0 0 0 0 
0 0 0 0 0 0 0 0 0 
0 0 0 0 6.03221e-10 0 0 0 0 
0 0 0 0 0 0 0 0 0 
0 0 0 0 0 0 0 0 0 
0 0 0 0 0 0 0 0 0 
0 0 0 0 0 0 0 0 0 
0 0 0 0 0 0 0 0 0 
0 0 0 0 0 0 0 0 0 
0 0 0 3.60089e-10 0 0 0 0 0 
0 0 0 0 0 0 0 0 0 
0 0 0 0 0 0 0 0 0 
0 0 0 0 0 0 0 3.70292e-10 0 
0 0 0 0 0 0 0 0 0 
0 0 0 0 0 0 0 0 0 
0 0 0 0 0 0 0 0 0 
0 0 0 0 0 0 0 0 0 
0 1.37048e-09 0 0 0 3.85603e-10 0 0 0 
0 0 0 0 0 0 0 0 0 
0 0 0 0 0 0 0 0 0 
0 6.54726e-10 0 0 0 0 0 9.13776e-10 0 
0 0 0 0 0 0 0 0 0 
0 0 0 0 0 0 0 0 0 
0 0 0 0 0 0 0 0 0 
0 0 0 0 0 0 4.98382e-10 0 0 
0 0 0 0 0 0 0 0 0 
0 0 0 0 0 0 0 0 8.63256e-10 
0 0 0 0 0 0 0 0 0 
0 0 0 1.29132e-09 0 0 0 0 0 
0 0 0 0 0 0 0 0 0 
0 0 0 0 0 0 0 0 0 
0 0 0 0 0 0 7.69965e-10 0 0 
0 0 0 0 0 0 0 2.80522e-11 0 
0 0 0 0 0 0 0 0 0 
0 0 0 8.04604e-10 4.03364e-10 0 0 0 0 
0 0 0 0 0 0 0 0 0 
0 0 0 0 0 0 0 0 0 
0 0 0 0 0 0 0 0 0 
0 0 0 0 0 0 0 0 0 
0 4.56122e-10 0 0 0 0 0 0 0 
0 0 0 0 0 0 0 0 0 
0 0 0 0 0 0 0 0 0 
0 0 0 0 0 0 0 0 0 
0 0 0 0 0 0 0 0 0 
0 0 0 0 0 0 0 0 0 
0 0 0 0 0 0 0 0 0 
0 0 0 0 0 0 0 0 3.414e-10 
0 0 0 0 0 0 0 0 0 
0 3.40286e-10 0 0 0 0 7.39142e-10 0 0 
0 0 0 0 0 0 0 0 0 
0 0 0 0 0 0 0 0 0 
0 0 0 0 0 0 0 2.98057e-10 0 
0 9.88937e-10 0 0 0 0 3.32669e-10 0 0 
2.9857e-10 0 0 0 0 0 0 7.99988e-10 0 
0 0 0 0 0 0 0 0 0 
0 0 0 0 0 0 0 0 0 
0 0 0 0 0 0 0 0 0 
0 4.6732e-10 0 0 0 0 3.20344e-10 0 0 
0 0 0 0 0 0 0 0 0 
0 0 0 0 0 0 0 0 0 
0 0 0 0 0 0 0 0 0 
0 0 0 0 0 0 0 0 0 
0 0 0 0 0 0 0 0 0 
1.309e-10 0 0 0 0 0 0 0 0 
0 0 0 0 0 0 0 0 0 
0 0 0 0 0 0 0 3.88237e-10 0 
0 0 0 0 0 0 0 0 0 
0 0 0 0 0 0 0 0 0 
0 0 0 0 0 5.88546e-10 0 0 0 
0 0 0 0 0 0 0 0 0 
0 0 0 0 7.59528e-10 0 3.81068e-10 0 0 
0 0 0 0 0 0 0 0 0 
0 0 0 0 0 0 0 0 0 
0 0 0 0 0 0 0 0 0 
0 0 0 0 0 0 0 0 0 
0 0 0 0 0 0 0 0 0 
0 0 0 0 0 0 0 0 0 
0 0 0 0 0 0 0 0 0 
0 0 0 0 0 0 0 0 0 
7.01938e-10 0 0 0 0 0 0 0 0 
0 0 0 1.67717e-10 0 0 0 0 0 
0 0 3.78423e-10 0 0 0 0 0 0 
0 0 0 0 0 0 0 0 0 
0 0 0 0 0 0 0 0 0 
0 0 0 0 0 0 0 0 0 
0 0 0 0 0 0 0 0 0 
7.25031e-10 0 5.30854e-10 4.16517e-10 0 0 0 0 0 
0 0 0 0 0 0 0 0 0 
0 0 0 0 0 0 0 0 0 
0 0 0 6.70251e-10 0 0 0 0 0 
0 0 0 0 0 0 1.02251e-09 0 0 
0 0 0 0 0 0 0 0 0 
0 0 0 0 0 0 0 0 0 
0 0 0 0 0 0 0 0 0 
0 0 0 0 0 0 0 0 0 
0 0 0 0 0 0 0 0 0 
0 0 0 0 0 0 0 0 0 
0 0 0 0 0 0 0 0 0 
0 0 0 0 0 0 0 0 0 
0 0 0 0 0 0 0 0 0 
0 0 0 0 0 0 0 0 0 
0 0 7.88102e-10 0 0 0 0 0 0 
0 0 0 0 0 0 0 0 0 
0 0 0 0 0 0 0 0 0 
0 0 0 0 0 0 0 0 0 
6.63185e-10 0 0 0 0 0 0 9.15026e-10 0 
0 0 0 0 0 0 0 0 0 
0 0 0 0 0 0 0 0 0 
3.02602e-10 0 0 0 5.99975e-10 0 0 0 0 
0 0 0 0 0 0 0 0 0 
0 0 0 0 0 0 0 0 0 
0 0 0 0 0 0 0 0 0 
0 0 0 6.4829e-10 0 0 1.06273e-09 0 0 
0 0 0 4.73968e-11 0 0 0 0 0 
0 0 0 0 0 0 0 0 0 
0 0 0 0 0 0 0 0 0 
0 0 0 0 0 0 0 8.25747e-10 0 
0 0 0 3.89512e-10 0 0 0 0 0 
0 0 0 0 0 6.67285e-10 0 0 0 
0 0 0 0 0 0 0 0 0 
0 0 0 0 0 0 0 1.18697e-09 0 
0 0 0 0 0 0 0 0 0 
0 0 0 0 0 0 0 0 0 
0 0 9.47644e-10 0 0 0 0 0 0 
0 0 0 0 0 0 0 0 0 
0 0 0 0 0 0 0 0 0 
0 0 3.86549e-10 0 0 0 0 0 0 
0 0 0 0 0 0 0 0 0 
0 0 0 0 0 0 6.92157e-10 0 0 
0 0 0 0 0 2.83375e-10 0 0 0 
3.68281e-10 0 0 0 0 0 0 0 0 
0 0 0 0 5.49704e-10 0 0 0 0 
0 0 0 0 0 0 0 0 0 
0 0 0 0 0 0 0 0 0 
0 0 0 0 0 0 0 0 0 
0 4.1832e-10 0 6.99991e-11 0 0 0 0 0 
0 0 0 6.00938e-10 0 0 0 0 0 
0 0 0 0 0 0 0 0 0 
0 0 0 0 0 0 0 0 0 
0 0 7.2507e-10 0 0 0 0 0 0 
0 0 0 0 0 0 0 0 0 
0 0 0 0 0 0 0 0 0 
0 0 4.48874e-10 0 0 0 0 0 0 
0 0 0 0 0 0 0 0 0 
0 0 0 0 0 0 6.71211e-10 0 0 
0 0 0 0 0 0 0 9.16881e-10 0 
0 0 0 0 0 0 0 0 0 
0 0 0 0 0 0 0 0 0 
0 0 0 0 0 0 0 0 0 
0 0 0 0 0 0 0 0 0 
0 7.44507e-10 0 0 0 0 0 0 0 
0 0 0 0 0 0 0 0 0 
0 0 0 0 0 6.1053e-10 0 0 0 
0 0 0 0 0 0 0 0 0 
0 0 0 0 0 0 0 
feature_5 1 2500 float
0 0 0 0 0 0 0 0 0 
0 0 0 0 0 0 0 0 0 
0 0 0 0 0 0 0 0 0 
0 0 0 0 0 0 6.00561e-10 0 0 
0 0 0 0 0 7.52713e-11 0 0 0 
0 0 0 0 0 0 0 0 0 
0 1.10363e-09 0 0 0 0 0 0 0 
0 0 0 0 0 0 0 0 0 
0 0 0 0 0 0 0 0 0 
0 0 0 0 0 0 0 1.2418e-09 0 
0 0 1.00047e-09 0 0 0 0 0 0 
3.2659e-08 0 8.22482e-10 0 0 0 0 0 0 
0 0 9.02922e-11 0 6.97066e-10 0 0 0 0 
0 0 0 0 0 0 0 0 0 
0 0 0 0 0 0 0 0 0 
0 0 0 0 0 0 4.89912e-10 0 0 
0 0 0 0 0 0 0 0 8.77986e-10 
0 0 0 0 0 0 3.8618e-11 0 0 
0 0 0 0 0 0 0 0 0 
0 0 0 0 0 0 0 0 0 
0 0 0 0 0 0 3.5924e-10 0 0 
0 0 0 3.04597e-08 0 0 0 0 2.49932e-08 
0 0 3.47889e-10 5.08088e-10 0 0 0 0 0 
0 0 0 0 0 0 0 0 0 
0 0 1.40366e-08 0 0 0 0 0 0 
0 0 0 0 0 0 0 0 1.27139e-09 
0 0 0 0 0 0 0 0 0 
0 0 1.48533e-08 0 0 0 0 0 0 
0 0 0 0 0 0 0 9.07431e-10 0 
0 0 0 0 0 0 0 0 0 
0 0 0 0 0 0 0 0 0 
0 0 0 0 0 0 0 9.68861e-11 0 
0 0 0 0 6.82057e-10 0 0 0 0 
0 0 0 1.77485e-11 0 0 0 0 0 
0 0 0 0 0 0 0 0 0 
0 0 0 0 0 0 0 0 0 
0 0 0 0 0 0 0 0 0 
0 0 0 0 0 0 0 1.39715e-08 0 
0 0 0 5.58469e-10 0 0 0 0 0 
0 0 0 0 0 0 0 0 0 
0 3.12877e-10 0 0 0 0 0 0 0 
6.71911e-10 0 0 0 0 0 0 0 0 
0 0 0 0 0 0 0 0 0 
0 0 0 0 5.70502e-10 0 0 0 0 
0 0 0 0 0 0 1.87467e-08 0 0 
0 0 0 1.27151e-07 0 0 0 0 4.04016e-09 
0 0 0 7.44695e-10 0 5.04144e-10 0 0 0 
0 0 0 0 0 0 0 0 8.43318e-10 
0 0 0 0 0 0 0 0 0 
0 0 0 0 0 0 0 0 0 
0 0 0 0 0 0 0 0 0 
0 6.07955e-10 0 0 7.39561e-10 0 0 0 0 
0 0 0 0 0 0 0 0 0 
0 0 0 0 0 0 0 0 0 
0 0 0 0 0 0 0 0 0 
7.21219e-10 0 0 1.0515e-09 0 0 0 0 0 
2.3535e-08 0 0 0 0 0 0 0 0 
0 0 0 0 0 0 0 1.33724e-09 0 
0 7.40641e-10 0 0 0 0 0 0 3.47676e-10 
0 4.84814e-10 0 0 0 0 0 5.56938e-10 2.67431e-11 
0 0 0 0 0 0 0 1.88856e-08 0 
0 0 0 0 0 8.88907e-10 0 0 0 
0 0 0 0 0 0 0 0 0 
0 0 0 0 0 0 0 0 0 
0 0 0 0 0 0 0 0 0 
0 0 0 0 0 0 0 0 0 
0 0 0 0 0 0 0 0 0 
0 0 0 0 0 0 0 0 0 
0 0 0 0 0 0 0 0 0 
0 0 0 0 0 0 0 0 0 
0 0 0 0 0 0 0 0 0 
0 0 0 0 0 0 5.86176e-10 4.05646e-10 0 
0 0 0 0 0 0 0 0 0 
0 0 0 0 1.25741e-10 0 0 0 0 
0 0 0 1.21685e-09 0 0 1.00424e-09 0 0 
0 5.13328e-10 0 0 0 0 8.27082e-10 0 0 
0 0 0 0 0 0 0 0 0 
0 0 0 0 0 0 0 0 0 