# vtk DataFile Version 5.1
vtk output
ASCII
DATASET STRUCTURED_POINTS
DIMENSIONS 50 50 1
SPACING 1 1 1
ORIGIN 0 0 0
POINT_DATA 2500
FIELD FieldData 6
feature_1 1 2500 float
0 0 0 0 9.05487e-10 0 0 0 0 
0 0 0 0 0 0 0 0 0 
0 0 0 0 0 0 5.90202e-10 0 0 
0 0 0 0 0 0 0 0 0 
0 0 0 0 0 0 0 0 2.0961e-10 
0 0 0 0 0 0 0 0 0 
0 0 5.57499e-10 0 0 0 0 0 0 
0 0 0 0 0 0 5.85842e-12 0 0 
0 0 0 0 0 0 0 0 0 
0 0 0 0 0 0 0 0 0 
0 0 0 7.31266e-10 0 0 0 7.87104e-10 5.45281e-10 
0 0 0 0 0 0 0 0 0 
0 0 0 0 0 0 0 0 0 
0 0 0 0 0 0 0 0 0 
0 0 0 0 0 0 0 0 0 
0 0 0 0 0 0 0 0 0 
0 2.48001e-10 0 0 0 0 0 0 0 
0 0 4.49838e-10 0 0 0 0 0 0 
0 0 0 0 0 0 0 0 0 
0 0 0 0 0 0 0 0 0 
0 0 0 0 0 0 0 0 0 
0 0 0 0 0 0 0 0 0 
0 0 0 0 0 0 0 0 0 
0 0 0 0 0 0 0 0 0 
0 0 0 0 0 0 0 4.71132e-10 3.25496e-10 
0 0 0 0 0 0 0 0 0 
0 0 0 0 0 0 0 0 0 
0 0 0 0 0 0 0 0 4.6764e-10 
0 0 0 0 0 0 0 0 0 
0 0 0 0 0 0 0 0 0 
0 0 0 0 0 0 0 0 0 
0 0 0 4.86786e-10 0 0 0 0 0 
0 0 0 0 0 0 0 0 0 
0 0 0 0 0 0 0 0 0 
0 6.01521e-10 0 0 0 0 0 0 0 
0 0 0 1.20172e-10 0 0 0 0 0 
0 0 0 0 0 0 0 0 0 
0 0 0 0 0 0 0 0 0 
0 0 0 0 0 0 0 0 0 
0 0 0 0 0 0 0 7.11911e-10 0 
0 0 0 0 0 0 0 0 2.7272e-08 
4.94939e-10 0 0 0 0 0 0 0 6.77258e-06 
5.11873e-08 0 0 0 0 0 0 0 0 
0 0 0 0 0 0 0 0 0 
0 0 0 0 0 0 0 0 0 
0 0 0 6.78035e-06 0 0 0 0 0 
0 0 0 0 6.79197e-06 0 0 0 0 
0 0 0 0 0 0 0 0 0 
0 4.64361e-10 0 0 0 0 0 0 0 
0 0 0 0 0 0 0 0 0 
0 0 0 0 0 0 0 0 5.90923e-11 
0 0 0 0 0 0 0 0 2.94304e-08 
0 0 0 0 0 0 0 0 0 
0 0 2.4732e-09 0 0 0 0 0 0 
0 0 0 0 0 0 0 0 0 
0 0 0 0 0 0 0 0 0 
2.45254e-10 0 0 0 0 0 0 0 0 
0 0 0 7.187e-06 0 1.03004e-10 0 0 0 
0 0 0 0 0 0 0 0 0 
0 0 3.12925e-08 0 6.278e-10 0 0 0 0 
6.87231e-06 0 0 0 0 5.68885e-10 0 0 0 
0 0 0 0 5.36755e-10 0 0 0 0 
0 0 7.19061e-06 0 0 7.02464e-06 0 7.35832e-06 4.96485e-10 
0 0 0 2.91596e-10 0 0 0 0 0 
0 0 0 0 0 0 8.09818e-06 8.39573e-06 0 
0 3.7515e-08 6.88819e-06 0 0 3.35749e-08 0 0 0 
0 0 0 0 0 0 0 0 0 
0 0 0 0 0 6.10782e-08 7.16805e-06 0 0 
0 0 0 0 0 0 0 0 0 
0 0 0 0 1.30893e-10 0 0 0 0 
0 1.00035e-09 0 0 7.25371e-06 0 0 3.49803e-08 0 
6.93533e-06 0 0 0 0 0 0 0 0 
0 0 0 4.17799e-10 0 0 0 0 0 
0 1.52165e-08 0 0 0 0 0 0 0 
0 0 0 0 0 0 0 0 6.80436e-06 
0 0 6.8104e-06 0 0 0 0 0 0 
0 4.55078e-10 0 0 0 0 0 0 0 
0 0 8.02146e-10 0 0 0 0 0 0 
0 0 0 0 0 3.12109e-10 0 0 0 
0 0 0 0 0 0 0 0 0 
0 0 0 0 2.22176e-08 0 0 5.31241e-08 0 
0 0 0 0 0 0 0 0 0 
0 0 0 0 0 0 0 0 0 
0 0 0 0 0 0 0 0 0 
0 0 8.51514e-11 0 0 6.91667e-06 0 2.59716e-07 7.38938e-06 
0 0 0 0 0 0 0 0 0 
0 0 0 0 0 0 0 6.87009e-06 6.57522e-08 
0 0 0 0 0 0 0 0 0 
0 0 0 0 0 0 0 0 1.01329e-09 
0 0 0 0 0 0 0 0 0 
0 4.75119e-08 0 7.63977e-06 0 0 0 0 0 
3.90731e-10 1.69668e-08 6.79938e-06 3.17419e-08 0 0 0 2.70358e-10 0 
0 0 0 0 5.74343e-08 0 0 0 0 
0 0 0 0 0 0 0 0 0 
0 0 0 0 0 0 0 0 0 
0 0 0 2.29464e-10 0 0 0 0 0 
7.4546e-06 0 0 7.25555e-09 0 1.08752e-09 0 0 0 
0 0 2.20977e-08 0 0 0 8.11555e-09 0 0 
0 0 0 0 6.12114e-07 0 0 0 0 
2.96374e-10 0 7.10401e-11 3.811e-10 0 0 0 4.69136e-10 0 
3.48416e-10 0 0 6.95046e-10 0 0 0 0 0 
0 0 6.83916e-06 0 0 0 3.91168e-08 0 0 
0 0 0 0 0 0 0 0 6.97816e-06 
0 0 0 0 0 8.10851e-06 0 0 7.50093e-06 
0 7.56075e-06 0 0 0 0 3.34477e-10 0 0 
0 0 0 0 0 0 0 0 0 
0 0 0 0 0 0 0 0 0 
0 0 7.07955e-06 0 7.22912e-06 7.41102e-08 8.60323e-06 9.30466e-06 0 
0 0 0 4.89572e-08 0 0 0 0 0 
0 5.62248e-08 0 0 0 7.99613e-06 0 0 0 
0 0 0 0 0 0 0 0 0 
0 0 0 5.81021e-10 0 0 0 0 0 
0 0 0 0 0 0 0 0 0 
0 0 0 8.41394e-06 4.26806e-08 7.34087e-10 0 0 0 
0 0 0 0 0 0 0 0 7.41778e-06 
0 0 7.43914e-06 0 0 0 0 0 0 
0 0 0 0 0 0 0 0 0 
0 0 0 0 0 0 0 0 0 
0 0 0 0 0 0 0 0 3.15002e-08 
0 0 0 0 0 0 0 0 0 
0 7.08999e-06 0 7.53799e-06 0 0 0 2.93494e-08 0 
0 0 0 0 0 0 0 0 0 
0 0 0 0 0 0 0 0 2.53773e-08 
8.01401e-06 8.0193e-06 0 0 0 0 0 6.78897e-06 0 
0 0 0 0 2.00789e-08 0 0 0 0 
0 0 0 0 0 0 0 0 6.98269e-08 
0 0 0 0 0 0 0 0 0 
0 0 0 0 0 0 0 0 0 
0 0 0 0 1.63131e-08 0 0 0 0 
0 0 0 4.4251e-08 0 0 3.20786e-08 6.86381e-06 0 
0 0 0 0 0 0 7.18328e-06 0 0 
0 0 0 7.13942e-06 0 7.12176e-06 0 0 6.8356e-06 
2.75768e-08 0 0 0 4.60309e-10 0 0 0 0 
0 0 0 0 0 0 0 0 0 
0 0 0 0 0 0 0 0 0 
0 0 0 0 0 0 0 0 0 
0 0 0 7.20048e-06 0 0 0 0 0 
0 1.37917e-08 0 0 0 0 0 0 0 
0 0 0 0 0 0 0 0 0 
0 0 0 0 0 0 0 0 0 
0 0 0 0 0 0 0 0 0 
6.95395e-06 0 0 0 0 8.21167e-06 0 0 0 
0 0 0 0 0 0 0 1.00629e-08 0 
0 0 0 0 0 0 1.34208e-10 0 0 
0 0 0 0 0 0 0 0 0 
0 0 0 0 0 0 0 0 0 
0 0 0 0 6.72131e-10 0 0 2.15134e-08 7.53095e-06 
3.14654e-06 8.61514e-06 0 0 0 0 0 0 0 
0 1.69692e-10 0 0 0 0 0 0 0 
3.25332e-08 0 0 0 0 0 0 0 0 
0 0 0 0 0 0 0 0 0 
0 0 0 0 0 0 0 0 0 
0 0 6.97155e-06 0 0 7.64563e-06 0 0 0 
6.90802e-06 0 0 0 1.85739e-08 0 0 0 0 
0 0 0 0 6.76996e-06 3.26964e-08 0 0 0 
0 0 0 0 0 0 0 0 0 
0 0 0 0 0 0 0 0 6.73703e-08 
0 0 0 0 0 0 0 0 0 
0 0 0 0 0 0 0 7.056e-06 0 
6.70375e-06 0 0 0 6.79708e-06 0 3.71102e-10 0 0 
0 0 0 0 0 0 0 0 0 
0 0 0 0 0 0 0 0 0 
6.88037e-06 0 0 0 6.877e-06 0 0 0 0 
0 0 0 0 0 0 0 0 0 
0 0 0 2.52846e-08 0 0 0 0 0 
0 0 4.49035e-10 0 0 0 0 0 0 
0 0 0 0 0 0 0 0 0 
0 0 0 0 0 0 0 8.17822e-06 0 
0 0 0 3.54872e-09 0 0 0 0 0 
0 0 0 0 0 0 0 0 0 
0 0 2.93316e-08 6.81546e-06 1.3796e-08 0 0 0 0 
0 0 0 0 0 0 0 0 0 
0 0 0 0 0 0 0 0 0 
0 0 0 8.05712e-06 0 0 0 0 0 
0 0 0 6.79418e-06 4.99753e-10 0 0 0 0 
0 0 0 0 0 0 0 0 0 
0 0 0 0 0 0 0 0 0 
0 0 0 0 0 0 0 0 0 
0 0 0 0 0 0 0 0 0 
0 4.58602e-10 0 0 0 0 0 8.77172e-10 0 
0 0 6.4292e-10 0 0 0 0 0 0 
4.84184e-08 0 0 0 0 0 0 0 9.56849e-10 
7.233e-06 0 0 0 0 0 0 0 0 
0 0 6.64304e-10 0 0 0 0 0 0 
0 0 0 0 0 0 0 6.78305e-06 3.27628e-10 
1.1579e-08 0 1.07248e-10 0 0 0 0 0 0 
0 0 0 0 3.17463e-08 6.78033e-06 4.29087e-08 0 0 
0 0 0 0 7.18604e-06 0 1.05313e-07 6.88687e-06 0 
0 0 0 0 0 0 0 0 0 
0 0 0 0 0 0 0 0 0 
0 0 0 0 0 0 0 3.9893e-08 6.88326e-06 
4.02779e-08 0 0 0 0 0 3.65519e-08 0 0 
0 0 0 0 0 0 0 0 0 
0 0 1.6207e-08 0 0 0 0 0 0 
0 0 0 0 0 0 0 0 0 
3.17684e-10 0 0 6.77722e-06 0 0 0 0 0 
0 0 0 0 0 0 0 0 0 
0 0 6.96501e-06 4.57065e-08 0 0 0 0 0 
0 1.33726e-09 0 0 0 0 0 0 0 
0 0 0 0 0 0 0 0 0 
0 0 0 0 0 0 0 0 0 
0 0 0 0 0 4.10516e-11 0 8.03133e-06 1.35049e-10 
0 0 2.40195e-10 0 8.02735e-06 8.10426e-06 0 0 0 
6.98919e-06 0 0 0 0 0 0 0 0 
0 0 0 0 0 0 0 0 0 
0 0 0 0 0 0 0 0 0 
0 0 5.12735e-10 0 0 0 1.04297e-10 0 0 
3.50887e-10 0 0 0 0 0 0 3.13186e-10 0 
0 0 0 0 3.81602e-08 0 7.037e-10 0 0 
0 0 0 0 5.59762e-10 7.67564e-10 0 0 0 
0 0 0 0 0 0 0 0 0 
0 0 0 0 0 0 0 0 0 
0 0 1.75192e-08 0 0 0 5.74718e-11 0 0 
0 0 0 0 0 0 0 0 0 
8.44034e-06 0 8.29072e-08 7.21765e-06 0 0 0 0 0 
0 0 0 6.68585e-10 0 0 0 0 0 
0 0 0 0 0 0 0 0 0 
0 0 0 0 0 2.26843e-08 6.80342e-06 0 0 
7.00222e-06 0 0 0 0 0 0 0 0 
0 8.36739e-10 0 0 1.0501e-10 8.84675e-06 0 7.48852e-06 0 
0 0 0 0 3.45189e-10 0 0 0 1.15498e-08 
2.76243e-08 0 0 0 1.4838e-08 0 0 0 0 
0 0 0 0 0 2.1608e-10 0 0 6.57614e-10 
0 0 0 0 0 5.47058e-08 0 0 0 
0 0 0 4.65548e-11 0 0 0 6.84241e-06 0 
0 0 0 0 0 0 0 0 0 
0 8.17703e-06 0 0 0 6.91106e-06 0 0 6.88242e-06 
4.63668e-10 0 0 0 1.76016e-10 4.53227e-10 0 5.46969e-10 0 
0 0 0 0 6.9441e-10 9.09981e-10 0 0 0 
2.83625e-08 6.97868e-06 0 0 0 0 0 0 0 
0 0 0 0 0 0 0 0 0 
3.56044e-08 0 0 0 7.05621e-06 0 8.42107e-06 0 7.14763e-06 
0 0 0 0 0 0 0 0 0 
0 0 0 0 0 0 0 0 0 
0 0 0 0 0 0 0 0 0 
0 0 0 0 0 5.24906e-10 0 0 0 
0 0 0 0 0 6.79306e-06 2.36781e-08 0 0 
6.26756e-08 0 4.27894e-08 0 0 0 0 3.14982e-08 6.87232e-06 
0 0 0 0 0 0 3.40652e-10 0 0 
0 0 0 0 0 0 0 0 0 
0 0 0 0 0 0 0 0 0 
0 0 0 0 4.22677e-10 0 0 0 0 
0 0 0 0 0 0 0 0 0 
0 0 0 0 0 0 0 0 0 
0 0 0 0 0 0 0 0 0 
0 0 0 0 0 0 0 0 0 
0 0 0 0 0 0 0 0 0 
0 0 0 0 0 0 1.90959e-08 0 0 
0 1.77441e-10 0 0 0 0 0 0 0 
0 0 0 0 0 0 0 0 0 
0 0 0 0 0 0 0 6.1252e-10 0 
0 0 0 0 0 0 0 0 0 
0 0 0 0 0 0 0 0 0 
0 0 0 0 0 0 0 0 0 
0 0 0 0 0 6.81287e-09 0 2.26855e-10 0 
0 0 0 0 0 0 0 0 0 
0 0 0 0 0 0 0 0 0 
0 0 0 0 0 0 0 0 0 
0 0 0 0 0 0 0 0 0 
0 0 0 0 0 0 0 0 0 
0 0 0 5.91321e-10 0 0 0 0 0 
0 0 0 0 0 0 0 0 0 
0 0 0 0 0 0 0 0 0 
0 0 0 0 0 0 0 0 0 
0 0 0 0 0 0 5.03025e-10 0 8.51685e-10 
0 0 0 0 0 0 0 0 0 
0 0 0 0 0 0 0 0 0 
0 0 0 0 0 0 0 0 0 
0 0 0 0 0 0 0 3.67653e-11 0 
0 0 0 0 0 0 0 0 0 
0 0 0 0 0 0 0 0 0 
0 0 0 0 0 0 0 0 0 
0 0 0 0 0 0 0 0 0 
0 0 0 0 0 6.1636e-10 0 0 0 
0 0 0 0 0 0 0 0 7.05294e-11 
0 0 0 0 0 0 0 0 0 
0 0 0 0 0 0 0 0 0 
0 0 0 0 0 0 0 
feature_2 1 2500 float
0 0 0 0 0 0 0 0 0 
0 0 0 0 0 0 0 0 0 
0 0 0 0 0 0 0 0 0 
0 0 0 0 0 0 0 0 0 
0 0 0 0 0 0 0 0 0 
0 0 0 5.2222e-10 0 0 0 0 0 
0 0 0 0 0 4.85478e-10 1.35667e-10 0 0 
0 0 0 0 0 0 0 0 0 
0 0 0 0 0 0 0 0 0 
0 0 0 0 0 0 2.47848e-10 0 0 
0 0 0 0 0 0 0 0 0 
2.70638e-08 0 0 0 0 0 0 0 0 
0 0 0 0 0 0 0 0 0 
0 0 0 0 0 0 0 0 0 
0 0 0 0 0 0 0 0 0 
5.68406e-10 0 0 0 0 0 0 0 0 
0 0 0 0 0 0 0 0 0 
0 0 0 0 0 0 0 0 0 
0 0 0 0 0 0 0 0 0 
0 0 0 0 0 0 0 0 0 
0 0 0 0 0 0 0 0 0 
0 4.21117e-10 0 0 0 0 0 4.03315e-10 0 
0 0 0 0 0 0 0 0 0 
0 0 0 1.09593e-10 0 0 0 0 0 
0 0 0 0 0 0 0 0 0 
0 0 4.81784e-10 2.37648e-10 0 0 0 0 0 
0 7.91847e-10 0 0 0 0 0 0 0 
0 0 1.44641e-08 0 0 0 0 0 0 
0 0 0 0 0 0 0 0 0 
0 0 0 0 3.11211e-10 0 0 0 0 
0 0 0 0 0 0 0 0 0 
0 0 5.07804e-10 0 0 1.0829e-10 0 0 0 
0 0 0 0 0 0 0 0 0 
0 0 0 0 0 0 0 0 0 
0 0 0 0 0 0 0 0 0 
0 0 0 0 0 0 0 4.96858e-10 0 
0 0 0 0 0 0 0 0 0 
0 0 1.09897e-08 0 0 0 0 0 0 
0 0 0 0 0 0 0 0 0 
0 0 0 0 0 0 0 2.20624e-11 0 
0 0 0 0 0 0 0 0 0 
0 0 0 0 0 0 0 0 0 
0 0 0 0 0 3.46176e-11 0 0 0 
0 0 0 0 0 0 2.89603e-10 4.10463e-11 0 
0 0 0 0 0 0 1.74497e-08 0 0 
0 0 0 9.47937e-08 0 0 1.73877e-10 0 0 
0 0 0 0 0 0 0 0 0 
0 0 0 0 0 0 0 0 0 
0 0 0 0 0 0 0 0 0 
0 0 0 0 0 0 0 0 0 
0 0 0 0 0 0 0 0 0 
0 0 0 0 0 0 0 0 0 
0 0 0 0 0 0 0 0 0 
0 0 0 0 0 0 0 0 0 
0 0 0 0 0 0 0 0 0 
0 0 4.45022e-10 0 0 0 0 0 0 
0 0 0 0 0 0 0 0 0 
0 0 0 0 0 0 0 7.44258e-10 0 
0 0 0 0 0 0 0 0 0 
0 0 0 0 0 0 0 0 0 
0 0 0 0 0 0 0 0 0 
0 0 0 0 0 0 0 0 0 
5.27219e-10 0 0 0 0 0 0 0 0 
0 0 0 0 0 0 0 0 0 
0 0 0 0 0 0 0 0 0 
0 0 7.61315e-10 0 0 0 0 0 0 
0 0 0 0 0 0 0 0 0 
0 0 0 0 0 0 0 4.06732e-11 2.28646e-10 
0 0 0 0 0 0 0 0 0 
0 0 0 0 0 0 0 0 0 
0 0 0 0 0 0 0 0 0 
0 0 0 0 0 0 0 0 0 
0 0 0 0 0 0 0 0 0 
0 0 0 0 0 0 0 5.88489e-11 0 
0 2.12122e-10 0 0 0 2.49431e-10 0 0 0 
0 0 4.1965e-10 0 0 0 0 0 0 
0 0 0 0 0 0 0 0 0 
0 0 0 6.76589e-10 0 0 0 0 0 
0 0 0 0 0 0 1.49356e-09 0 2.88296e-10 
0 0 0 0 0 0 0 0 0 
0 0 9.71703e-11 0 0 0 0 0 0 
0 0 0 0 0 0 0 0 2.28841e-10 
0 0 0 0 0 0 0 0 0 
0 0 0 0 0 0 0 0 0 
3.63908e-10 0 0 0 0 0 0 6.82448e-07 3.23992e-07 
0 0 0 0 0 0 0 0 0 
0 0 0 0 0 0 0 0 0 
0 0 0 0 0 0 0 0 0 
0 0 0 0 0 0 0 0 0 
0 0 0 0 0 0 0 0 0 
0 0 0 1.19485e-07 0 0 0 0 0 
0 1.31017e-10 0 0 0 0 0 0 0 
0 0 0 0 0 0 0 0 0 
0 0 0 0 0 0 0 0 0 
0 0 0 6.50811e-10 0 0 0 0 0 
0 0 0 1.36939e-11 0 0 0 0 0 
0 0 0 0 0 0 0 0 0 
0 0 0 0 0 0 0 0 0 
0 0 0 0 0 0 2.01421e-10 0 0 
0 0 0 0 0 0 0 0 0 
0 0 0 0 0 5.16032e-10 0 0 0 
0 0 6.45443e-10 0 0 0 5.4666e-10 0 0 
0 0 0 0 0 0 0 0 0 
0 1.08241e-09 6.89912e-10 0 4.06452e-10 0 0 0 0 
0 0 0 0 0 0 0 0 0 
0 0 0 0 0 0 0 0 0 
0 0 0 5.35891e-10 0 0 0 0 0 
0 0 0 0 0 0 0 0 0 
0 0 0 0 0 0 0 0 0 
0 0 0 0 0 0 0 0 0 
0 0 0 0 0 0 0 0 0 
0 0 0 0 0 0 0 0 0 
0 0 0 0 0 0 0 0 0 
0 0 0 0 0 0 0 0 0 
0 0 0 0 0 0 0 0 0 
0 0 0 0 0 0 0 0 0 
0 0 0 0 0 7.01665e-10 0 0 0 
0 0 0 0 0 0 0 0 0 
0 0 0 0 0 0 0 0 0 
0 0 0 0 0 0 0 0 0 
0 0 0 0 0 0 0 0 0 
0 0 0 0 2.18359e-10 0 0 0 0 
0 0 0 0 0 0 0 0 0 
0 0 0 0 0 0 0 0 0 
0 0 0 0 5.86144e-10 0 0 0 0 
0 0 0 0 0 0 0 0 0 
0 0 0 0 0 0 0 0 0 
0 0 0 8.24024e-10 0 0 0 0 0 
0 0 0 0 0 0 0 0 0 
0 0 0 0 0 0 0 6.65516e-10 0 
0 0 0 0 0 0 0 0 0 
0 0 0 0 0 0 0 0 0 
0 0 0 0 0 0 0 4.09155e-10 0 
0 0 0 0 1.86786e-10 0 0 0 0 
0 0 0 0 0 0 0 1.89498e-09 0 
0 0 0 0 0 0 0 0 0 
0 0 0 0 0 0 0 0 0 
0 0 0 0 0 0 0 0 3.58071e-10 
0 0 0 0 0 0 0 0 0 
0 0 0 0 0 3.0788e-10 0 0 0 
0 0 0 0 0 0 0 0 0 
0 0 0 0 5.47395e-10 0 0 0 9.28111e-11 
0 0 0 0 0 0 0 0 0 
0 0 0 0 0 0 0 0 0 
0 0 0 0 0 0 0 0 0 
0 0 0 0 0 0 0 0 0 
0 2.21718e-08 0 2.86228e-10 0 0 0 0 0 
0 0 0 0 0 0 0 0 0 
0 0 0 0 0 0 0 0 0 
0 0 0 5.72367e-10 0 0 0 0 0 
0 0 0 0 0 0 0 0 0 
0 0 0 0 0 0 0 4.02505e-11 0 
0 0 0 0 0 1.82717e-08 0 0 0 
0 0 0 0 0 0 0 0 0 
0 0 0 0 0 0 0 2.09974e-11 1.22302e-08 
0 0 0 0 0 0 0 0 0 
0 0 0 0 0 0 0 0 0 
0 0 0 0 0 0 0 0 0 
0 0 0 0 0 0 0 0 0 
0 0 0 0 0 0 0 0 0 
0 0 0 0 0 0 0 0 0 
0 0 0 0 0 0 0 0 0 
1.05045e-09 0 0 0 0 0 0 0 0 
0 0 0 0 0 0 0 0 0 
0 0 0 0 0 0 0 0 0 
0 0 0 0 0 0 0 0 0 
0 0 0 0 0 0 0 0 0 
0 0 0 0 0 0 0 0 0 
0 0 0 0 0 0 0 0 0 
0 0 0 0 0 0 0 0 2.18996e-10 
0 0 0 0 0 0 0 0 0 
0 0 0 0 0 6.94115e-10 0 0 0 
0 0 0 0 0 0 0 2.87073e-10 0 
0 0 0 0 0 0 0 0 0 
0 0 5.14742e-10 0 0 0 0 0 0 
0 0 0 0 0 0 0 0 0 
0 0 0 0 0 0 0 0 0 
0 0 0 0 0 0 0 0 0 
0 0 0 0 0 0 0 0 0 
0 0 0 0 0 0 0 4.2543e-10 2.85372e-10 
0 0 0 3.38574e-11 0 0 0 0 0 
0 0 0 0 0 0 0 0 0 
0 0 0 0 0 0 0 0 6.16552e-10 
0 0 0 7.30584e-10 0 7.33465e-10 0 0 0 
0 0 0 0 0 0 0 0 0 
0 0 3.28118e-10 0 0 0 0 0 0 
0 0 0 0 0 0 0 0 0 
0 0 0 0 0 0 0 0 0 
0 0 0 0 0 0 0 0 0 
0 0 0 0 0 0 0 0 0 
0 0 0 0 0 0 0 0 0 
3.76854e-10 0 0 0 0 0 0 0 0 
3.19904e-10 0 0 0 0 0 0 0 0 
0 0 0 0 0 0 0 0 0 
0 0 0 0 0 0 0 0 0 
0 0 0 0 0 0 0 0 0 
0 0 0 0 0 0 0 0 0 
4.16206e-10 0 0 0 0 4.58179e-10 0 0 0 
0 0 0 0 0 0 2.26354e-10 7.75717e-11 0 
0 0 0 0 0 0 0 0 0 
0 1.72534e-10 0 0 0 0 0 0 0 
0 0 0 0 0 0 0 0 0 
0 9.06184e-10 0 0 0 0 0 0 0 
0 0 0 0 0 0 0 0 0 
0 0 0 0 0 0 0 0 0 
8.43244e-10 0 0 0 0 0 0 0 0 
0 0 0 0 0 0 0 0 0 
0 0 0 0 0 0 0 0 0 
0 0 0 7.55811e-10 0 0 0 0 0 
0 0 0 0 0 0 0 0 0 
0 0 0 0 0 0 0 0 0 
1.23607e-09 0 0 0 0 0 0 0 0 
0 0 0 0 0 0 0 0 0 
0 0 0 0 0 0 0 0 0 
8.9539e-10 0 0 0 0 0 0 0 0 
0 0 0 0 0 0 0 0 0 
0 0 0 3.31377e-08 0 0 0 0 1.30517e-08 
0 0 0 0 0 0 0 0 0 
1.43975e-09 0 0 0 0 0 4.12506e-11 0 0 
0 0 0 0 0 0 0 0 3.20533e-10 
0 0 0 0 0 0 0 0 0 
0 0 0 0 0 0 0 0 0 
0 0 0 0 0 0 0 0 0 
0 0 0 0 0 0 0 0 0 
0 0 0 0 0 0 0 0 6.7471e-10 
5.60345e-10 0 0 0 0 0 0 0 0 
0 0 0 0 0 0 0 0 0 
0 3.86706e-10 0 2.69558e-09 1.83293e-08 0 0 0 0 
0 0 0 5.63158e-10 0 0 0 0 0 
0 0 0 0 0 0 0 0 6.82427e-10 
0 0 1.14181e-08 0 0 0 0 0 0 
0 0 0 0 0 0 0 0 0 
0 0 0 0 0 0 0 0 0 
0 0 0 0 0 0 0 0 2.32187e-08 
0 0 0 0 0 0 0 0 0 
0 0 0 0 5.57492e-11 0 0 0 0 
0 0 0 0 0 0 0 0 0 
0 0 0 0 0 0 0 0 0 
0 0 0 1.7085e-10 0 0 0 2.19682e-11 0 
0 0 0 0 0 0 0 0 0 
0 0 0 0 0 0 0 1.77181e-10 0 
0 0 0 0 0 2.52248e-10 0 0 0 
0 0 0 0 0 0 0 0 0 
0 8.29008e-10 0 0 0 0 0 0 0 
0 0 0 0 0 0 0 0 0 
0 0 0 0 0 0 0 0 0 
0 0 0 0 0 0 0 0 0 
0 0 0 4.16001e-10 0 0 0 0 0 
0 0 0 3.19712e-09 0 0 0 2.5881e-10 0 
0 0 0 0 0 0 0 0 0 
0 0 0 0 0 0 0 1.72231e-08 0 
0 0 0 0 0 0 0 0 0 
0 0 0 0 0 0 3.4391e-10 0 0 
0 0 0 0 0 0 0 0 0 
0 0 0 0 0 0 5.38328e-10 0 0 
0 0 0 0 0 0 0 0 0 
0 0 0 5.38947e-10 0 0 0 0 0 
0 0 0 0 0 0 0 0 0 
0 0 0 0 0 0 0 4.08289e-10 0 
0 0 0 0 0 0 0 0 0 
0 4.93372e-10 0 0 0 0 0 0 0 
0 0 5.67534e-10 1.03986e-10 0 0 0 0 0 
0 0 3.09329e-10 0 2.88613e-08 0 0 0 0 
0 0 0 0 0 0 0 0 0 
0 0 0 0 0 0 0 0 0 
0 0 0 0 0 0 0 2.52154e-11 0 
0 0 0 2.16913e-09 0 0 0 0 0 
0 0 0 0 0 0 0 6.49933e-10 0 
0 0 0 0 0 0 0 0 0 
0 0 2.38949e-09 0 0 0 1.94113e-10 0 2.17039e-08 
0 0 0 0 3.20906e-10 0 0 0 0 
0 0 0 0 0 0 0 0 0 
5.59602e-10 0 0 0 0 0 0 0 0 
0 0 0 0 0 0 0 0 0 
0 0 0 0 0 0 0 0 0 
3.83316e-10 0 0 0 2.7843e-10 0 0 0 0 
0 0 0 0 0 0 0 0 0 
0 0 0 0 0 0 0 
feature_3 1 2500 float
0 0 0 0 0 0 0 0 0 
0 0 0 0 0 0 0 0 0 
0 0 0 0 0 0 0 0 0 
0 0 0 0 0 0 0 0 0 
0 0 0 0 0 0 0 0 0 
0 0 0 0 0 7.35056e-10 0 0 0 
0 0 0 0 0 0 0 0 0 
4.54058e-10 0 0 0 0 0 0 0 0 
0 0 0 0 0 0 0 0 0 
0 0 0 0 0 0 0 0 0 
0 0 0 0 0 0 0 0 0 
0 0 0 0 0 0 0 0 0 
0 0 0 0 0 0 0 3.75955e-10 0 
0 0 0 8.27466e-10 0 0 2.793e-10 0 0 
0 0 0 0 0 0 0 0 0 
0 0 0 4.78376e-10 0 0 0 0 0 
0 0 0 0 0 0 0 0 0 
0 0 0 0 0 0 0 0 0 
0 0 0 0 9.25176e-09 0 0 0 1.3838e-10 
0 0 0 0 0 0 0 0 0 
0 0 0 0 0 0 0 0 0 
0 0 0 0 0 0 0 0 0 
0 1.8936e-10 0 0 0 0 0 0 0 
0 0 0 0 0 0 0 0 0 
0 0 0 0 0 0 0 0 0 
0 0 0 0 0 0 0 0 0 
4.56268e-10 0 0 0 0 0 0 0 6.97185e-11 
0 0 0 0 0 0 0 0 0 
0 0 0 0 0 0 0 0 0 
0 0 0 0 0 0 0 0 0 
0 0 0 0 0 0 0 0 5.25663e-10 
0 0 0 0 0 0 0 0 0 
0 0 0 0 0 0 0 0 0 
0 0 0 0 0 0 0 0 0 
0 0 0 0 0 0 0 0 0 
0 0 0 0 0 0 0 0 0 
0 0 0 0 2.29459e-10 0 0 0 0 
0 0 0 0 0 0 0 0 0 
0 0 0 0 0 0 0 0 0 
0 0 0 0 1.60451e-10 0 0 0 0 
0 0 0 0 0 0 0 0 0 
0 0 0 0 0 0 0 0 0 
0 0 0 0 0 0 0 0 0 
0 0 0 0 0 0 0 0 0 
0 0 0 3.05135e-10 0 0 0 0 0 
0 0 0 0 0 0 0 0 0 
0 0 0 0 0 0 0 0 0 
1.06652e-11 0 0 0 0 0 0 0 0 
0 0 1.63855e-10 0 0 0 0 0 0 
0 0 0 0 0 0 0 0 0 
4.99213e-10 0 0 0 0 0 0 0 0 
0 0 0 0 0 0 0 0 0 
0 0 0 0 0 0 0 0 0 
0 0 0 0 0 0 0 0 0 
0 0 0 0 0 0 0 0 0 
0 0 0 0 0 0 0 0 0 
0 0 0 0 0 0 0 0 0 
0 0 0 0 0 0 0 0 0 
0 0 0 0 0 0 0 0 0 
0 0 0 0 0 0 0 0 0 
0 0 0 0 8.69086e-10 0 0 3.08965e-10 0 
0 0 0 0 0 0 0 0 0 
0 0 0 0 0 0 0 0 0 
0 0 0 0 0 0 0 0 0 
0 0 0 0 0 0 0 0 0 
0 0 0 0 0 0 0 0 0 
0 0 0 0 0 0 0 0 0 
0 0 0 0 0 0 0 0 0 
0 0 0 0 0 0 0 0 0 
0 0 0 0 0 0 0 0 0 
0 0 0 0 0 0 0 0 0 
0 0 0 0 0 0 0 0 0 
0 0 0 6.18407e-10 0 0 0 0 0 
0 0 0 0 0 0 0 0 0 
3.69649e-10 0 0 0 0 0 0 0 0 
0 0 0 0 0 0 0 0 0 
0 0 0 0 0 0 5.37121e-10 0 0 
0 0 0 0 0 0 0 6.5107e-10 0 
0 0 0 0 0 0 0 0 0 
6.75282e-10 0 0 0 0 0 0 0 0 
0 0 0 0 0 0 0 0 0 
0 0 0 0 0 0 7.8149e-11 0 0 
0 0 0 0 2.84246e-10 0 0 0 0 
0 0 0 0 0 0 0 0 0 
0 0 0 0 0 0 0 0 0 
0 0 0 4.1317e-10 0 0 0 0 0 
0 0 0 0 0 0 0 0 0 
0 0 0 0 0 0 0 0 0 
6.0891e-10 0 0 0 0 0 0 0 0 
0 0 0 0 0 0 0 0 0 
0 0 0 0 0 0 0 0 0 
0 0 0 0 0 0 0 0 0 
0 0 0 0 0 0 0 0 0 
0 0 0 0 0 0 0 0 3.21458e-10 
0 5.72694e-10 0 0 0 0 0 0 1.84333e-10 
0 0 0 0 0 0 2.98719e-10 0 0 
0 0 0 0 0 0 0 0 0 
0 0 0 0 0 0 0 0 0 
0 0 0 0 1.02574e-07 0 0 0 0 
0 0 0 0 0 0 0 0 0 
0 0 0 0 0 0 0 0 0 
0 0 0 0 0 0 0 0 0 
0 0 3.93229e-10 0 0 0 1.98554e-10 0 0 
0 0 0 0 0 0 0 0 0 
0 0 0 0 0 0 0 0 0 
0 7.39856e-10 0 0 0 0 0 0 0 
0 0 0 0 0 0 0 0 0 
0 0 0 0 0 0 0 0 0 
0 0 0 0 0 0 0 0 0 
0 0 0 0 0 0 0 0 0 
0 0 0 0 0 0 0 0 0 
5.51257e-10 0 0 0 0 3.10337e-10 0 0 0 
0 0 0 0 0 0 0 0 0 
1.40435e-10 0 0 0 0 0 0 0 0 
0 0 0 0 0 0 0 0 0 
0 0 0 0 0 0 0 0 0 
0 0 0 0 0 0 0 0 0 
8.61178e-11 0 0 0 0 0 0 0 0 
0 0 0 0 0 0 0 0 0 
0 0 0 0 0 0 0 0 0 
0 0 0 0 0 0 0 0 0 
0 0 0 0 0 0 7.023e-10 5.68484e-10 0 
0 0 2.95589e-08 0 0 0 0 0 0 
0 0 0 0 0 0 0 0 0 
0 0 0 0 2.31385e-09 0 0 0 0 
0 0 5.87688e-09 0 0 0 0 0 0 
0 0 0 0 0 0 0 0 0 
0 0 0 0 0 0 0 0 6.69598e-10 
0 8.29257e-11 0 0 0 0 0 0 0 
0 0 0 0 0 0 0 0 5.90003e-10 
0 0 0 0 0 0 0 0 0 
0 0 0 0 0 0 0 0 0 
0 0 0 0 0 0 0 0 0 
0 0 0 0 0 0 0 0 0 
0 0 0 0 0 0 0 0 0 
0 0 0 0 0 0 0 0 0 
0 0 0 0 0 0 0 0 0 
0 0 0 0 0 0 0 0 0 
0 0 0 0 0 0 0 0 3.58177e-10 
0 0 0 0 0 0 0 0 0 
0 0 0 0 0 0 0 0 0 
0 0 0 0 0 0 0 0 0 
0 0 0 0 0 0 0 0 0 
0 0 0 0 0 0 0 0 0 
0 0 0 0 8.74646e-10 1.9616e-08 0 0 2.19213e-08 
0 0 0 0 0 0 0 3.44905e-10 0 
0 1.61931e-08 0 0 0 0 0 0 0 
0 2.71296e-10 0 0 0 0 0 0 0 
0 0 0 0 0 0 0 0 0 
0 0 0 0 0 0 0 0 0 
0 0 0 0 0 0 0 0 3.90113e-10 
0 0 0 0 0 5.89949e-10 0 0 0 
0 0 0 0 0 0 0 0 0 
0 0 0 0 0 2.80995e-10 0 0 0 
0 0 0 0 0 0 0 0 0 
0 6.78284e-10 0 0 0 0 0 0 0 
0 0 0 0 0 0 0 0 0 
0 0 0 0 0 0 0 0 0 
0 0 0 0 0 0 0 0 0 
0 0 0 0 0 0 0 0 0 
0 0 0 0 0 0 0 1.45707e-10 0 
0 0 0 0 0 0 0 0 0 
0 0 2.02991e-10 0 0 0 1.33729e-10 0 0 
0 0 0 0 0 0 0 0 0 
0 0 0 0 0 0 0 0 0 
0 0 0 0 0 0 0 0 0 
0 0 0 0 0 0 0 0 0 
0 0 0 0 0 0 0 7.72314e-10 0 
0 0 0 0 0 0 0 0 0 
0 0 0 0 0 0 0 0 0 
0 0 0 0 0 0 0 0 0 
0 0 0 0 0 0 0 0 0 
0 0 0 0 0 0 0 0 0 
0 0 0 2.96488e-10 0 0 0 0 0 
0 0 0 0 0 0 0 0 0 
0 0 0 0 0 0 0 0 0 
0 0 0 0 0 0 0 0 0 
0 0 0 0 0 0 0 0 0 
0 0 0 0 3.97932e-10 0 0 0 0 
0 0 0 0 0 0 0 0 0 
0 0 0 0 2.30919e-10 4.66351e-10 0 0 0 
0 3.72324e-12 0 0 0 0 0 3.14486e-10 0 
0 0 0 0 0 4.26148e-10 0 0 0 
0 0 0 0 0 0 0 0 0 
0 0 0 0 0 0 0 0 0 
2.46025e-10 0 8.57732e-11 0 0 0 0 0 0 
0 2.38223e-10 0 0 0 0 0 0 0 
0 0 0 0 0 0 0 0 0 
0 0 0 5.93989e-10 0 0 0 0 0 
0 0 0 0 0 0 0 0 0 
0 0 0 0 0 0 0 0 0 
0 0 0 0 0 0 0 0 0 
0 0 0 0 0 0 0 0 0 
0 0 0 0 0 0 0 0 0 
0 0 0 0 0 0 0 0 0 
0 0 0 0 8.85596e-10 0 0 0 0 
0 0 0 0 0 0 0 3.79305e-10 0 
0 0 6.51383e-10 0 0 0 0 0 0 
2.82184e-08 0 0 0 0 0 0 1.54344e-10 0 
0 0 0 8.0982e-10 0 0 0 0 0 
1.52266e-08 0 0 0 0 0 0 0 0 
0 0 0 0 0 0 0 0 0 
0 0 0 1.78673e-10 0 0 0 0 5.30381e-10 
0 0 0 0 0 0 0 0 0 
0 0 0 0 0 0 0 0 0 
0 0 0 0 0 0 0 0 0 
0 0 0 0 0 1.56938e-10 0 0 0 
0 0 0 0 0 0 0 0 0 
0 0 0 2.51861e-10 0 0 0 0 0 
0 0 0 0 0 0 0 0 0 
0 0 0 0 0 0 0 0 0 
0 0 0 0 0 0 0 0 0 
0 0 0 0 0 0 0 0 0 
0 0 0 0 0 0 0 0 0 
0 0 0 0 0 0 0 0 0 
0 0 0 0 0 3.57929e-10 0 0 0 
0 0 0 0 0 0 0 0 0 
0 0 0 0 0 4.61835e-10 0 0 0 
0 0 0 0 0 4.77357e-10 0 0 0 
0 0 0 0 0 0 0 0 0 
0 0 0 0 0 0 0 0 0 
0 0 0 0 0 0 0 2.79158e-10 0 
0 0 0 3.72147e-10 0 0 0 0 0 
0 0 0 0 0 0 0 0 0 
0 0 0 0 0 0 0 0 0 
0 0 0 0 0 0 0 0 7.80229e-10 
0 0 0 0 0 0 0 0 0 
0 0 2.36998e-10 0 0 0 0 0 0 
0 0 0 0 0 0 0 0 0 
0 0 0 0 0 0 0 0 0 
0 2.88022e-10 0 0 0 1.95818e-10 0 0 0 
0 0 0 0 0 0 0 0 0 
2.21466e-10 0 0 0 0 7.20004e-10 0 0 0 
0 0 0 0 0 0 0 0 0 
0 0 0 0 0 0 0 0 0 
0 0 0 0 0 0 0 0 0 
0 0 0 0 0 0 0 0 0 
0 0 0 0 0 0 0 0 0 
0 0 0 0 0 0 0 0 0 
0 5.96277e-10 0 0 0 0 0 0 0 
0 0 0 0 0 0 0 1.69166e-10 0 
0 0 0 0 0 0 0 0 5.9017e-10 
0 0 0 0 0 0 0 0 0 
0 0 0 0 0 0 0 0 0 
0 0 0 0 0 0 0 0 0 
0 0 0 0 0 0 0 0 6.41073e-10 
0 0 0 0 0 0 0 0 0 
0 0 7.76385e-10 0 0 0 0 0 0 
0 0 0 0 0 0 0 0 0 
0 0 0 0 0 0 0 0 0 
1.34467e-08 0 0 0 0 0 0 0 0 
0 0 0 0 0 0 0 0 0 
0 0 0 0 0 0 0 0 0 
0 0 0 0 0 0 0 0 0 
0 0 0 0 0 0 0 0 0 
0 0 0 0 0 0 0 0 0 
0 0 0 0 0 0 0 0 0 
0 0 6.84473e-10 0 0 0 0 0 0 
0 0 0 0 0 0 0 0 0 
0 0 0 0 0 0 0 0 0 
0 0 0 0 0 0 0 0 0 
0 0 0 0 0 0 0 0 0 
0 0 0 0 0 0 0 0 7.93641e-11 
0 0 6.45745e-10 0 0 0 0 0 0 
0 0 0 0 0 0 0 0 0 
0 0 0 0 0 0 0 0 0 
0 0 0 0 0 0 0 0 0 
0 0 0 0 0 0 0 0 0 
0 0 0 0 0 0 0 0 0 
0 0 0 0 0 0 0 0 0 
5.70967e-10 0 0 0 0 0 0 0 0 
0 0 4.73129e-10 0 0 0 0 0 0 
0 3.2896e-10 0 0 0 0 0 0 0 
0 0 0 0 0 0 0 0 0 
0 0 0 0 0 0 0 7.99226e-10 0 
0 2.1454e-08 3.15946e-10 0 0 4.58705e-10 0 0 0 
0 0 0 0 0 0 0 0 0 
0 0 0 0 0 0 0 
feature_4 1 2500 float
0 0 0 0 0 0 0 0 0 
0 8.27487e-10 0 8.60606e-10 0 0 0 0 0 
0 0 0 3.10049e-10 0 0 7.44024e-10 0 0 
0 0 0 0 0 0 0 0 0 
0 0 0 0 0 0 0 0 0 
0 0 0 0 0 0 0 0 0 
0 0 0 0 0 0 0 0 0 
0 0 0 0 0 0 0 0 0 
0 0 0 1.27286e-10 0 0 0 0 0 
0 0 0 0 0 0 0 0 0 
0 0 0 0 0 0 0 0 0 
0 0 7.12301e-10 0 0 0 0 0 0 
0 0 0 0 0 0 0 0 0 
0 0 0 0 0 0 0 0 0 
0 2.86352e-10 0 0 0 0 0 0 1.84372e-10 
0 0 0 0 0 0 0 0 0 
0 3.23343e-10 0 0 0 5.93978e-10 6.5285e-10 0 0 
0 0 0 0 0 0 0 0 0 
0 0 0 0 0 0 0 0 0 
0 0 0 0 0 0 0 0 0 
0 0 0 0 0 0 0 0 0 
0 0 0 0 0 0 0 0 2.87685e-10 
0 0 0 0 0 0 0 0 0 
0 0 0 0 0 0 0 0 0 
0 0 0 0 0 0 0 0 0 
0 0 0 0 0 0 0 0 0 
0 0 0 0 0 0 0 0 0 
5.20817e-10 0 0 0 0 0 0 0 0 
0 0 0 0 0 0 0 0 0 
0 0 0 0 0 0 0 0 0 
0 0 0 0 0 0 0 0 0 
0 0 6.80188e-10 0 0 5.95008e-11 0 0 0 
0 0 0 0 0 0 0 0 0 
0 0 0 0 0 0 0 0 0 
0 0 0 0 0 0 0 0 0 
0 0 0 0 0 0 0 6.68212e-10 0 
0 0 0 0 0 0 0 0 0 
0 0 0 0 0 0 0 0 0 
0 0 5.98462e-10 0 0 0 0 0 0 
0 0 0 0 0 0 0 0 0 
0 0 0 0 0 0 0 0 0 
0 0 0 0 0 0 0 0 0 
0 0 0 0 0 0 0 0 0 
0 3.06523e-10 0 0 0 0 0 0 0 
0 0 0 0 0 0 3.21883e-10 0 0 
0 0 0 0 0 0 0 0 0 
0 0 0 0 0 0 0 0 0 
0 0 0 0 0 0 0 0 3.80648e-10 
0 0 0 0 4.75701e-10 0 0 0 0 
0 0 0 0 0 0 0 0 0 
0 0 0 0 0 0 0 0 0 
0 0 0 4.42991e-10 0 0 0 0 0 
0 0 0 0 0 0 0 0 0 
0 0 0 0 0 0 0 0 0 
0 0 0 0 0 0 0 0 0 
0 0 0 0 0 0 0 0 0 
0 0 0 0 0 1.12909e-10 0 0 0 
0 0 0 0 0 0 0 0 0 
0 8.13294e-10 0 0 0 0 0 0 0 
0 0 0 3.07972e-10 0 0 0 0 0 
0 0 0 0 0 0 0 0 0 
0 0 0 0 0 0 0 0 0 
0 0 0 0 0 0 5.86368e-10 0 0 
0 0 0 0 0 0 0 0 0 
0 0 0 0 0 0 0 0 0 
0 0 0 0 0 0 0 0 0 
0 0 3.38797e-10 0 0 0 0 0 0 
0 0 2.87162e-10 0 0 0 0 0 0 
0 0 0 0 0 0 0 0 0 
0 0 0 0 0 0 0 0 0 
0 0 4.08459e-10 0 0 0 0 0 0 
0 0 0 0 0 0 0 0 0 
0 0 0 0 0 0 0 0 0 
0 0 0 0 0 0 0 0 0 
0 0 0 0 0 0 0 0 0 
0 0 0 0 0 0 0 0 0 
0 0 0 0 0 0 0 0 0 
0 0 0 0 0 0 0 0 0 
0 0 0 0 0 0 0 0 0 
0 0 0 0 0 0 0 0 0 
0 0 0 0 0 0 0 0 0 
0 0 0 0 0 0 0 4.63569e-10 0 
0 0 0 0 0 0 0 0 0 
0 0 0 0 0 0 0 0 0 
0 0 0 0 0 0 0 0 0 
0 0 0 0 0 0 0 0 0 
0 0 0 0 0 0 0 0 0 
0 0 0 0 0 0 0 0 0 
0 0 0 0 0 0 0 0 0 
0 0 0 0 0 0 0 0 0 
0 0 1.32914e-10 5.79316e-10 0 0 0 0 0 
0 0 0 0 0 0 0 0 0 
0 0 0 0 0 0 0 0 0 
0 0 0 0 0 0 0 0 0 
0 0 0 0 0 0 0 0 0 
0 0 0 0 0 0 0 0 0 
0 0 0 0 0 0 0 0 0 
0 0 0 0 0 0 0 0 0 
1.76453e-10 0 0 0 0 0 0 0 5.65635e-10 
0 0 0 0 0 0 0 0 0 
0 0 0 0 0 0 7.53591e-10 0 0 
0 0 0 0 0 0 0 0 0 
0 2.59789e-10 0 0 0 0 0 0 0 
7.50816e-10 0 0 0 0 0 0 0 0 
0 0 0 0 0 0 0 0 0 
0 0 0 0 0 0 0 0 0 
0 0 0 0 0 0 0 0 0 
0 0 5.56344e-10 0 0 0 0 0 3.19112e-10 
0 0 0 0 0 0 0 0 0 
0 0 0 0 0 0 0 0 0 
0 0 0 0 0 0 0 0 0 
0 0 0 3.63936e-10 0 0 0 0 0 
0 0 0 0 0 0 0 0 0 
0 0 0 0 0 0 0 0 0 
0 0 0 0 0 0 0 0 0 
0 0 0 0 0 0 0 0 0 
0 0 0 0 0 0 0 0 0 
0 0 0 0 0 0 0 0 0 
0 0 0 0 0 0 0 0 0 
0 0 0 0 0 0 1.85704e-10 3.32832e-10 0 
0 0 0 0 0 0 0 0 0 
0 0 0 0 0 0 0 5.25926e-10 0 
0 0 0 0 0 0 0 0 0 
0 0 0 0 0 0 0 0 0 
0 0 0 0 0 0 0 0 0 
0 0 0 0 2.70814e-10 0 0 0 0 
0 0 0 0 0 0 0 0 0 
0 0 0 0 0 0 0 0 0 
0 0 0 0 0 0 0 0 0 
0 0 0 0 0 0 0 0 0 
0 0 0 0 0 0 0 0 0 
0 0 0 0 0 0 0 0 0 
0 0 0 2.00226e-10 0 0 0 0 0 
0 0 0 0 0 0 0 0 0 
0 0 0 0 0 0 0 0 0 
0 0 0 0 0 0 0 2.33332e-10 0 
0 0 0 0 0 0 0 0 0 
0 0 0 0 0 0 0 0 0 
0 0 0 0 0 0 0 0 0 
0 0 0 0 0 0 0 0 0 
0 8.21675e-10 0 0 0 1.92725e-10 0 0 0 
0 0 0 0 0 0 0 0 0 
0 0 0 0 0 0 0 0 0 
0 3.83405e-10 0 0 0 0 0 6.35541e-10 0 
0 0 0 0 0 0 0 0 0 
0 0 0 0 0 0 0 0 0 
0 0 0 0 0 0 0 0 0 
0 0 0 0 0 0 1.47844e-10 0 0 
0 0 0 0 0 0 0 0 0 
0 0 0 0 0 0 0 0 5.66931e-10 
0 0 0 0 0 0 0 0 0 
0 0 0 9.58483e-10 0 0 0 0 0 
0 0 0 0 0 0 0 0 0 
0 0 0 0 0 0 0 0 0 
0 0 0 0 0 0 6.71768e-10 0 0 
0 0 0 0 0 0 0 0 0 
0 0 0 0 0 0 0 0 0 
0 0 0 6.44803e-10 2.39439e-10 0 0 0 0 
0 0 0 0 0 0 0 0 0 
0 0 0 0 0 0 0 0 0 
0 0 0 0 0 0 0 0 0 
0 0 0 0 0 0 0 0 0 
0 2.05121e-10 0 0 0 0 0 0 0 
0 0 0 0 0 0 0 0 0 
0 0 0 0 0 0 0 0 0 
0 0 0 0 0 0 0 0 0 
0 0 0 0 0 0 0 0 0 
0 0 0 0 0 0 0 0 0 
0 0 0 0 0 0 0 0 0 
0 0 0 0 0 0 0 0 2.17319e-11 
0 0 0 0 0 0 0 0 0 
0 2.65761e-10 0 0 0 0 4.94321e-10 0 0 
0 0 0 0 0 0 0 0 0 
0 0 0 0 0 0 0 0 0 
0 0 0 0 0 0 0 0 0 
0 7.36812e-10 0 0 0 0 2.84608e-10 0 0 
1.53072e-10 0 0 0 0 0 0 6.02357e-10 0 
0 0 0 0 0 0 0 0 0 
0 0 0 0 0 0 0 0 0 
0 0 0 0 0 0 0 0 0 
0 1.0364e-10 0 0 0 0 1.17216e-10 0 0 
0 0 0 0 0 0 0 0 0 
0 0 0 0 0 0 0 0 0 
0 0 0 0 0 0 0 0 0 
0 0 0 0 0 0 0 0 0 
0 0 0 0 0 0 0 0 0 
1.068e-10 0 0 0 0 0 0 0 0 
0 0 0 0 0 0 0 0 0 
0 0 0 0 0 0 0 4.70756e-10 0 
0 0 0 0 0 0 0 0 0 
0 0 0 0 0 0 0 0 0 
0 0 0 0 0 5.60021e-10 0 0 0 
0 0 0 0 0 0 0 0 0 
0 0 0 0 6.22375e-10 0 3.03864e-10 0 0 
0 0 0 0 0 0 0 0 0 
0 0 0 0 0 0 0 0 0 
0 0 0 0 0 0 0 0 0 
0 0 0 0 0 0 0 0 0 
0 0 0 0 0 0 0 0 0 
0 0 0 0 0 0 0 0 0 
0 0 0 0 0 0 0 0 0 
0 0 0 0 0 0 0 0 0 
2.85414e-10 0 0 0 0 0 0 0 0 
0 0 0 3.76144e-11 0 0 0 0 0 
0 0 3.42375e-11 0 0 0 0 0 0 
0 0 0 0 0 0 0 0 0 
0 0 0 0 0 0 0 0 0 
0 0 0 0 0 0 0 0 0 
0 0 0 0 0 0 0 0 0 
5.36996e-10 0 1.94311e-10 1.01487e-10 0 0 0 0 0 
0 0 0 0 0 0 0 0 0 
0 0 0 0 0 0 0 0 0 
0 0 0 3.27718e-10 0 0 0 0 0 
0 0 0 0 0 0 8.54367e-10 0 0 
0 0 0 0 0 0 0 0 0 
0 0 0 0 0 0 0 0 0 
0 0 0 0 0 0 0 0 0 
0 0 0 0 0 0 0 0 0 
0 0 0 0 0 0 0 0 0 
0 0 0 0 0 0 0 0 0 
0 0 0 0 0 0 0 0 0 
0 0 0 0 0 0 0 0 0 
0 0 0 0 0 0 0 0 0 
0 0 0 0 0 0 0 0 0 
0 0 6.36646e-10 0 0 0 0 0 0 
0 0 0 0 0 0 0 0 0 
0 0 0 0 0 0 0 0 0 
0 0 0 0 0 0 0 0 0 
3.42652e-10 0 0 0 0 0 0 7.57776e-10 0 
0 0 0 0 0 0 0 0 0 
0 0 0 0 0 0 0 0 0 
3.05469e-10 0 0 0 1.91829e-10 0 0 0 0 
0 0 0 0 0 0 0 0 0 
0 0 0 0 0 0 0 0 0 
0 0 0 0 0 0 0 0 0 
0 0 0 4.58046e-10 0 0 7.82901e-10 0 0 
0 0 0 0 0 0 0 0 0 
0 0 0 0 0 0 0 0 0 
0 0 0 0 0 0 0 0 0 
0 0 0 0 0 0 0 6.21988e-10 0 
0 0 0 2.00593e-10 0 0 0 0 0 
0 0 0 0 0 3.13609e-10 0 0 0 
0 0 0 0 0 0 0 0 0 
0 0 0 0 0 0 0 8.65686e-10 0 
0 0 0 0 0 0 0 0 0 
0 0 0 0 0 0 0 0 0 
0 0 8.11369e-10 0 0 0 0 0 0 
0 0 0 0 0 0 0 0 0 
0 0 0 0 0 0 0 0 0 
0 0 4.16371e-10 0 0 0 0 0 0 
0 0 0 0 0 0 0 0 0 
0 0 0 0 0 0 3.77181e-10 0 0 
0 0 0 0 0 1.23972e-10 0 0 0 
2.89123e-10 0 0 0 0 0 0 0 0 
0 0 0 0 4.36167e-10 0 0 0 0 
0 0 0 0 0 0 0 0 0 
0 0 0 0 0 0 0 0 0 
0 0 0 0 0 0 0 0 0 
0 3.68777e-10 0 1.09054e-10 0 0 0 0 0 
0 0 0 3.81515e-10 0 0 0 0 0 
0 0 0 0 0 0 0 0 0 
0 0 0 0 0 0 0 0 0 
0 0 4.56154e-10 0 0 0 0 0 0 
0 0 0 0 0 0 0 0 0 
0 0 0 0 0 0 0 0 0 
0 0 2.14403e-10 0 0 0 0 0 0 
0 0 0 0 0 0 0 0 0 
0 0 0 0 0 0 3.7771e-10 0 0 
0 0 0 0 0 0 0 7.12308e-10 0 
0 0 0 0 0 0 0 0 0 
0 0 0 0 0 0 0 0 0 
0 0 0 0 0 0 0 0 0 
0 0 0 0 0 6.10321e-11 0 0 0 
0 6.96556e-10 0 0 0 0 0 0 0 
0 0 0 0 0 0 0 0 0 
0 0 0 0 0 2.39986e-10 0 0 0 
0 0 0 0 0 0 0 0 0 
0 0 0 0 0 0 0 
feature_5 1 2500 float
0 0 0 0 0 0 0 0 0 
0 0 0 0 0 0 0 0 0 
0 0 0 0 0 0 0 0 0 
0 0 0 0 0 0 3.23411e-10 0 0 
0 0 0 0 0 2.53728e-10 0 0 0 
0 0 0 0 0 0 0 0 0 
0 9.32928e-10 0 0 0 0 0 0 0 
0 0 0 0 0 0 0 0 0 
0 0 0 0 0 0 0 0 0 
0 0 0 0 0 0 0 9.80382e-10 0 
0 0 8.1377e-10 0 0 0 0 0 0 
3.28681e-08 0 5.96796e-10 0 0 0 0 0 0 
0 0 9.84564e-11 0 2.92182e-10 0 0 0 0 
0 0 0 0 0 0 0 0 0 
0 0 0 0 0 0 0 0 0 
0 0 0 0 0 0 5.0531e-10 0 0 
0 0 0 0 0 0 0 0 4.8534e-10 
0 0 0 0 0 0 0 0 0 
0 0 0 0 0 0 0 0 0 
0 0 0 0 0 0 0 0 0 
0 0 0 0 0 0 1.69564e-10 0 0 
0 0 0 3.03969e-08 0 0 5.2637e-11 0 2.50006e-08 
0 0 7.15659e-11 4.00611e-10 0 0 0 0 0 
0 0 0 0 0 0 0 0 0 
0 0 1.38736e-08 0 0 0 0 0 0 
0 0 0 0 0 0 0 0 9.39249e-10 
0 0 0 0 0 0 0 0 0 
0 0 1.52447e-08 0 0 0 0 0 0 
0 0 0 0 0 0 0 4.53195e-10 0 
0 0 0 0 0 0 0 0 0 
0 0 0 0 0 0 0 0 0 
0 0 0 0 0 0 0 0 0 
0 0 0 0 5.04691e-10 0 0 0 0 
0 0 0 0 0 0 0 0 0 
0 0 0 0 0 0 0 0 0 
0 0 0 0 0 0 0 0 0 
0 0 0 0 0 0 0 0 0 
0 0 0 0 0 0 0 1.38423e-08 0 
0 0 0 4.83258e-10 0 0 0 0 0 
0 0 0 0 0 0 0 0 0 
0 1.55403e-10 0 0 0 0 0 0 0 
3.35127e-10 0 0 0 0 0 0 0 0 
0 0 0 0 0 0 0 0 0 
0 0 0 0 5.72445e-10 0 0 0 0 
0 0 0 0 0 0 1.86457e-08 0 0 
0 0 0 1.27094e-07 0 0 0 0 4.15351e-09 
0 0 0 5.95243e-10 0 4.35922e-10 0 0 0 
0 0 0 0 0 0 0 0 3.79387e-10 
0 0 0 0 0 0 0 0 0 
0 0 0 0 0 0 0 0 0 
0 0 0 0 0 0 0 0 0 
0 4.15348e-10 0 0 3.22331e-10 0 0 0 0 
0 0 0 0 0 0 0 0 0 
0 0 0 0 0 0 0 0 0 
0 0 0 0 0 0 0 0 0 
1.81199e-10 0 0 6.95383e-10 0 0 0 0 0 
2.34038e-08 0 0 0 0 0 0 0 0 
0 0 0 0 0 0 0 9.34275e-10 0 
0 6.30088e-10 0 0 0 0 0 0 2.60659e-10 
0 3.2718e-10 0 0 0 0 0 3.50699e-10 0 
0 0 0 0 0 0 0 1.86749e-08 0 
0 0 0 0 0 3.49335e-10 0 0 0 
0 0 0 0 0 0 0 0 0 
0 0 0 0 0 0 0 0 0 
0 0 0 0 0 0 0 0 0 
0 0 0 0 0 0 0 0 0 
0 0 0 0 0 0 0 0 0 
0 0 0 0 0 0 0 0 0 
0 0 0 0 0 0 0 0 0 
0 0 0 0 0 0 0 0 0 
0 0 0 0 0 0 0 0 0 
0 0 0 0 0 0 6.03904e-10 4.95639e-11 0 
0 0 0 0 0 0 0 0 0 
0 0 0 0 0 0 0 0 0 
0 0 0 9.78389e-10 0 0 8.72735e-10 0 0 
0 4.17778e-10 0 0 0 0 7.09164e-10 0 0 
0 0 0 0 0 0 0 0 0 
0 0 0 0 0 0 0 0 0 
2.49197e-08 0 0 0 0 0 0 0 0 
0 0 0 0 0 0 0 0 0 
6.04306e-10 0 0 0 0 0 0 0 0 
0 0 6.37861e-10 0 0 0 0 0 0 
0 0 0 0 0 0 2.62467e-08 0 0 
0 0 0 0 0 0 0 0 0 
0 0 0 0 0 0 0 8.77876e-07 3.92448e-07 
0 4.71712e-10 0 0 0 0 0 0 0 
0 0 0 0 0 0 0 0 0 
0 0 0 0 0 0 0 1.64739e-10 0 
0 0 0 0 0 0 0 0 0 
0 0 0 0 0 0 0 0 0 
0 0 0 0 0 0 0 0 0 
0 0 0 0 0 0 0 0 2.86878e-10 
0 0 0 0 0 0 0 0 0 
0 0 0 0 0 0 0 0 0 
0 0 9.16671e-11 0 0 0 0 0 0 