# vtk DataFile Version 5.1
vtk output
ASCII
DATASET STRUCTURED_POINTS
DIMENSIONS 50 50 1
SPACING 1 1 1
ORIGIN 0 0 0
POINT_DATA 2500
FIELD FieldData 6
feature_1 1 2500 float
0 0 0 0 4.26194e-10 0 0 0 0 
0 0 0 0 0 0 0 0 0 
0 0 0 0 0 0 3.90745e-10 0 0 
0 0 0 0 0 0 0 0 0 
0 0 0 0 0 0 0 0 5.57776e-11 
0 0 0 0 0 0 0 0 0 
0 0 1.57524e-10 0 6.25242e-11 0 0 0 0 
0 0 0 0 0 0 2.94017e-10 0 0 
0 0 0 0 0 0 0 0 0 
0 0 0 0 0 0 0 0 0 
0 0 0 7.57399e-10 0 0 0 7.36893e-10 3.93008e-10 
0 0 0 0 0 0 0 0 0 
0 0 0 0 0 0 0 0 0 
0 0 0 0 0 0 0 0 0 
0 8.45493e-11 0 0 0 0 0 0 0 
0 0 0 0 0 0 0 0 0 
0 1.82718e-10 0 0 0 0 0 0 0 
0 0 0 0 0 0 0 0 0 
0 0 0 0 0 0 0 0 0 
0 0 0 0 0 0 0 0 0 
0 0 0 0 0 0 0 0 0 
0 0 0 0 0 0 0 0 0 
0 0 0 0 0 0 0 0 0 
0 0 0 0 0 0 0 0 0 
0 0 0 0 0 0 0 2.91259e-10 0 
0 0 0 0 0 0 0 0 0 
0 0 0 0 0 0 0 0 0 
0 0 0 0 0 0 0 0 3.10511e-10 
0 0 0 0 0 0 0 0 0 
0 0 0 0 0 0 0 0 0 
0 0 0 0 0 0 0 0 0 
0 0 0 3.87601e-12 0 0 0 0 0 
0 0 0 0 0 0 0 0 0 
0 0 0 0 0 0 0 0 0 
0 7.3997e-10 0 0 0 0 0 0 0 
0 0 0 1.66509e-10 0 0 0 0 0 
0 0 0 0 0 0 0 0 0 
0 0 0 0 0 0 0 0 0 
0 0 0 0 0 0 0 0 0 
0 0 0 0 0 0 0 4.73793e-10 0 
0 0 0 0 0 0 0 0 2.74494e-08 
3.73717e-10 0 0 0 0 0 0 0 6.77263e-06 
5.13225e-08 0 0 0 0 0 0 0 0 
0 0 0 0 0 0 0 0 0 
0 0 0 0 0 0 0 0 0 
0 0 0 6.78027e-06 0 0 0 0 0 
0 0 0 0 6.79177e-06 0 0 0 0 
0 0 0 0 0 0 0 0 0 
0 3.8558e-10 0 0 0 0 0 0 0 
0 0 0 0 0 0 0 0 0 
0 0 0 0 0 0 0 0 0 
0 0 0 0 0 0 0 0 2.9632e-08 
0 0 0 0 0 0 0 0 0 
0 0 2.11585e-09 0 0 0 0 0 0 
0 0 0 0 0 0 0 0 0 
0 0 0 0 0 0 0 0 0 
0 0 0 0 0 0 0 0 0 
0 0 0 7.18689e-06 0 0 0 0 0 
0 0 0 0 0 0 0 0 0 
0 0 3.12476e-08 0 3.72289e-10 0 0 0 0 
6.87257e-06 0 0 0 0 4.1284e-10 0 0 0 
0 0 0 0 4.06398e-10 0 0 0 0 
0 0 7.19009e-06 0 0 7.0247e-06 0 7.35819e-06 1.72268e-10 
0 0 0 4.16595e-10 0 0 0 0 0 
0 0 0 0 0 0 8.09842e-06 8.39578e-06 0 
0 3.74477e-08 6.88832e-06 0 0 3.37011e-08 0 0 0 
0 0 0 0 0 0 0 0 0 
0 0 0 0 0 6.15144e-08 7.16831e-06 0 0 
0 0 0 0 0 0 0 0 0 
0 0 0 0 0 0 0 0 0 
0 9.56145e-10 0 0 7.25373e-06 0 0 3.44166e-08 0 
6.93532e-06 0 0 0 0 0 0 0 0 
0 0 0 2.12161e-10 0 0 0 0 0 
0 1.49302e-08 0 0 0 0 0 0 0 
0 0 0 0 0 0 0 0 6.80429e-06 
0 0 6.81072e-06 0 0 0 0 0 0 
0 2.20677e-10 0 0 0 0 0 0 0 
0 0 5.48848e-10 0 0 0 0 0 0 
0 0 0 0 0 2.359e-10 0 0 0 
0 0 0 0 0 0 0 0 0 
0 0 0 0 2.24468e-08 0 0 5.3402e-08 0 
0 0 0 0 0 0 0 0 0 
0 0 0 0 0 0 0 0 0 
0 0 0 0 0 0 0 0 0 
0 0 0 0 0 6.9171e-06 0 2.60151e-07 7.3894e-06 
0 0 0 0 0 0 0 0 0 
0 0 0 0 0 0 0 6.87069e-06 6.58667e-08 
0 0 0 0 0 0 0 0 0 
0 0 0 0 0 0 0 0 7.38499e-10 
0 0 0 0 0 0 0 0 0 
0 4.7757e-08 0 7.63974e-06 0 0 0 0 0 
3.2794e-10 1.72693e-08 6.79935e-06 3.20885e-08 0 0 0 1.64274e-10 0 
0 0 0 0 5.73534e-08 0 0 0 0 
0 0 0 0 0 0 0 0 0 
0 0 0 0 0 0 0 0 0 
0 0 0 3.45896e-10 1.63746e-10 0 0 0 0 
7.45459e-06 0 0 7.32255e-09 0 1.04351e-09 0 0 0 
0 0 2.18863e-08 0 0 0 7.63405e-09 0 0 
0 0 0 0 6.1204e-07 0 0 0 0 
2.05141e-10 0 0 2.45421e-10 0 0 0 3.3582e-10 0 
4.36275e-10 0 0 5.13275e-10 0 0 0 0 0 
0 0 6.8389e-06 0 0 0 3.88745e-08 0 0 
0 0 0 0 0 0 0 0 6.97802e-06 
0 0 0 0 0 8.10808e-06 0 0 7.50083e-06 
0 7.56105e-06 0 0 0 0 0 0 0 
0 0 0 0 0 0 0 0 0 
0 0 0 0 0 0 0 0 0 
0 0 7.07965e-06 0 7.22907e-06 7.41393e-08 8.60322e-06 9.30438e-06 0 
0 0 0 4.88948e-08 0 0 0 0 0 
0 5.5674e-08 0 0 0 7.99608e-06 0 0 0 
0 0 0 0 0 0 0 0 0 
0 0 0 4.90495e-10 0 0 0 0 0 
0 0 0 0 0 0 0 0 0 
0 0 0 8.4135e-06 4.29184e-08 4.19163e-10 0 0 0 
0 0 0 0 0 0 0 0 7.41777e-06 
0 0 7.43904e-06 0 0 0 0 0 0 
0 0 0 0 0 0 0 0 0 
0 0 0 0 0 0 0 0 0 
0 0 0 0 0 0 0 0 3.16355e-08 
0 0 0 0 0 0 0 0 0 
0 7.09003e-06 0 7.53768e-06 0 0 0 2.91751e-08 0 
0 0 0 0 0 0 0 0 0 
0 0 0 0 0 0 0 0 2.55552e-08 
8.01444e-06 8.01964e-06 0 0 0 0 0 6.78881e-06 0 
0 0 0 0 2.01132e-08 0 0 0 0 
0 0 0 0 0 0 0 0 6.9812e-08 
0 0 0 0 0 0 0 0 0 
0 0 0 0 0 0 0 0 0 
0 0 0 0 1.64491e-08 0 0 0 0 
0 0 0 4.46473e-08 0 0 3.21441e-08 6.86413e-06 0 
0 0 0 0 0 0 7.18319e-06 0 0 
0 0 0 7.13908e-06 0 7.12191e-06 0 0 6.83617e-06 
2.76396e-08 0 0 0 3.12637e-10 0 0 0 0 
0 0 0 0 0 0 0 0 0 
0 0 1.4462e-10 0 0 0 0 0 0 
0 0 0 0 0 0 0 0 0 
0 0 0 7.19997e-06 0 0 0 0 0 
0 1.3322e-08 0 0 0 0 0 0 0 
0 0 0 0 0 0 0 0 0 
0 0 0 0 0 0 0 0 0 
0 0 0 0 0 0 0 0 0 
6.95429e-06 0 0 0 0 8.2115e-06 0 0 0 
0 0 0 0 0 0 0 9.70269e-09 0 
0 0 0 0 0 0 2.03258e-10 0 0 
0 0 0 0 0 0 0 0 0 
0 0 0 0 0 0 0 0 0 
0 0 0 0 6.26635e-10 0 0 2.11396e-08 7.53111e-06 
3.14673e-06 8.61535e-06 0 0 0 0 0 0 0 
0 0 0 0 0 0 0 0 0 
3.25024e-08 0 0 0 0 0 0 0 0 
0 0 0 0 0 0 0 0 0 
0 0 0 0 0 0 0 0 0 
0 0 6.97112e-06 0 0 7.64591e-06 0 0 0 
6.90804e-06 0 0 0 1.81811e-08 0 0 0 0 
0 0 0 0 6.77032e-06 3.24686e-08 0 0 0 
0 0 0 0 0 0 0 0 0 
0 0 0 0 0 0 0 0 6.75917e-08 
0 0 0 0 0 0 0 0 0 
0 0 0 0 0 0 0 7.05626e-06 0 
6.70425e-06 0 0 0 6.79688e-06 0 1.35664e-10 0 0 
0 0 0 0 0 0 0 0 0 
0 0 0 0 0 0 0 0 0 
6.88007e-06 0 0 0 6.87665e-06 0 0 0 0 
0 0 0 0 0 0 0 0 0 
0 0 0 2.511e-08 0 0 0 0 0 
0 0 9.66729e-11 0 0 0 0 0 0 
0 0 0 0 0 0 0 0 0 
0 0 0 0 0 0 0 8.17817e-06 0 
0 0 0 3.95556e-09 0 0 0 0 0 
0 0 0 0 0 0 0 0 0 
0 0 2.94195e-08 6.81547e-06 1.38169e-08 0 0 0 0 
0 0 0 0 0 1.75874e-10 0 0 0 
0 0 0 0 0 0 0 0 0 
0 0 0 8.05647e-06 0 0 0 0 0 
0 0 0 6.79392e-06 3.55755e-10 0 0 0 0 
0 0 0 0 0 0 0 0 0 
0 0 0 0 0 0 0 0 0 
0 0 0 0 0 0 0 0 0 
0 0 0 0 0 0 0 0 0 
0 4.13007e-10 0 0 0 0 0 6.81609e-10 0 
0 0 3.50063e-10 0 0 0 0 0 0 
4.8395e-08 0 0 0 0 0 0 0 7.24192e-10 
7.23328e-06 0 0 0 0 0 0 0 0 
0 0 5.66459e-10 0 0 0 0 0 0 
0 0 0 0 0 0 0 6.78301e-06 1.11427e-10 
1.16109e-08 0 4.17314e-10 0 0 0 0 0 0 
0 0 0 0 3.22123e-08 6.78021e-06 4.26715e-08 0 0 
0 0 0 0 7.18575e-06 0 1.05193e-07 6.88686e-06 0 
0 0 0 0 0 0 0 0 0 
0 0 0 0 0 0 0 0 0 
0 0 0 0 0 0 0 3.93155e-08 6.88302e-06 
4.01293e-08 0 0 0 0 0 3.65361e-08 0 0 
0 0 0 0 0 0 0 2.16941e-10 0 
0 0 1.61958e-08 0 0 0 0 0 0 
0 0 0 0 0 0 0 0 0 
1.24096e-10 0 0 6.77757e-06 0 0 0 0 0 
0 0 0 0 0 0 0 0 0 
0 0 6.965e-06 4.55756e-08 0 0 0 0 0 
0 1.27592e-09 0 0 0 0 0 0 0 
0 0 0 0 0 0 0 0 0 
0 0 0 0 0 0 0 0 0 
0 0 0 0 0 1.83249e-10 0 8.03141e-06 5.32605e-11 
0 0 3.40256e-10 0 8.02765e-06 8.10415e-06 0 0 0 
6.98962e-06 0 0 0 0 0 0 0 0 
0 0 0 0 0 0 0 0 0 
0 0 0 0 0 0 0 0 0 
0 0 3.59886e-10 0 0 0 5.69162e-11 0 0 
0 0 0 0 0 0 0 8.33467e-11 0 
0 0 0 0 3.81948e-08 0 8.54424e-10 0 0 
0 0 0 0 8.93479e-10 6.12875e-10 0 0 0 
0 0 0 0 0 0 0 0 0 
0 0 0 0 0 0 0 0 0 
0 0 1.72621e-08 0 0 0 3.17186e-11 0 0 
0 0 0 0 0 0 0 0 0 
8.44014e-06 0 8.22122e-08 7.21798e-06 0 0 0 0 0 
0 0 0 5.51065e-10 0 0 0 0 0 
0 0 0 0 0 0 0 0 0 
0 0 0 0 0 2.26847e-08 6.80348e-06 0 0 
7.00205e-06 0 0 0 0 0 0 0 0 
0 4.34248e-10 0 0 1.60387e-11 8.84623e-06 0 7.4882e-06 0 
0 0 0 0 3.50546e-10 0 0 0 1.16912e-08 
2.72452e-08 0 0 0 1.50949e-08 0 0 0 0 
0 0 0 0 0 4.58506e-10 0 0 7.79593e-10 
0 0 0 0 0 5.46703e-08 0 0 0 
0 0 0 0 0 0 0 6.84279e-06 0 
0 0 0 0 0 0 0 0 0 
0 8.17705e-06 0 0 0 6.91167e-06 0 0 6.88225e-06 
4.63626e-10 0 0 0 0 3.26075e-10 0 6.36083e-10 0 
0 0 0 0 3.64761e-10 7.17034e-10 0 0 0 
2.8049e-08 6.9786e-06 0 0 0 0 0 0 0 
0 0 0 0 0 0 0 0 0 
3.54417e-08 0 0 0 7.05625e-06 0 8.42088e-06 0 7.14761e-06 
0 0 0 0 0 0 0 0 0 
0 0 0 0 0 0 0 0 0 
0 0 0 0 0 0 0 0 0 
0 0 0 0 0 1.60849e-10 0 0 0 
0 0 0 0 0 6.79369e-06 2.34076e-08 0 0 
6.26968e-08 0 4.25468e-08 0 0 0 0 3.12152e-08 6.87225e-06 
0 0 0 0 0 0 6.59952e-10 0 0 
0 0 0 0 0 0 0 0 0 
0 0 0 0 0 0 0 0 0 
0 0 0 0 5.35547e-10 0 0 0 0 
0 0 0 0 0 0 0 0 0 
0 0 0 0 0 0 0 0 0 
0 0 0 0 0 0 0 0 0 
0 0 0 0 0 0 0 0 0 
0 0 0 0 0 0 0 0 0 
0 0 0 0 0 0 1.91944e-08 0 0 
0 1.37156e-10 0 0 0 0 0 0 0 
0 0 0 0 0 0 0 0 0 
0 0 0 0 0 0 0 2.0141e-10 0 
0 0 0 0 0 0 0 0 0 
0 0 0 0 0 0 0 0 0 
0 0 0 0 0 0 0 0 0 
0 0 0 0 0 6.98711e-09 0 1.71042e-10 0 
0 0 0 0 0 0 0 0 0 
0 0 0 0 0 0 0 0 0 
0 0 0 0 0 0 0 0 0 
0 0 0 0 0 0 0 0 0 
0 0 0 0 0 0 0 0 0 
0 0 0 2.76504e-10 0 0 0 0 0 
0 0 0 0 0 0 0 0 0 
0 0 0 0 0 0 0 0 0 
0 0 0 0 0 0 0 0 0 
0 0 0 0 0 0 3.46237e-10 0 8.22091e-10 
0 0 0 0 0 0 0 0 0 
0 0 0 0 0 0 0 0 0 
0 0 0 0 0 2.73577e-10 0 0 0 
0 0 0 0 0 0 0 0 0 
0 0 0 0 0 0 0 0 0 
0 0 0 0 0 0 0 0 0 
0 0 0 0 0 0 0 0 0 
0 0 0 0 0 0 0 0 0 
0 0 0 0 0 5.49615e-10 0 0 0 
0 0 0 0 0 0 0 0 2.41377e-10 
0 0 0 0 0 0 0 0 0 
0 0 0 0 0 0 0 0 0 
0 0 0 0 0 0 0 
feature_2 1 2500 float
0 0 0 0 0 0 0 0 0 
0 0 0 0 0 0 0 0 0 
0 0 0 0 0 0 0 0 0 
0 0 0 0 0 0 0 0 0 
0 0 0 0 0 0 0 0 0 
0 0 0 5.03752e-10 0 0 0 0 0 
0 0 0 0 0 5.38776e-10 0 0 0 
0 0 0 0 0 0 0 0 0 
0 0 0 0 0 0 0 0 0 
0 0 0 0 0 0 0 0 0 
0 0 0 0 0 0 0 0 0 
2.69082e-08 0 0 0 0 0 0 0 0 
0 0 0 0 0 0 0 0 0 
0 0 0 0 0 0 0 0 0 
0 0 0 0 0 0 0 0 0 
7.04215e-10 0 0 0 0 0 0 0 0 
0 0 0 0 0 0 0 0 0 
0 0 0 0 0 0 0 0 0 
0 0 0 0 0 0 0 0 0 
0 0 0 0 0 0 0 0 0 
0 0 1.33094e-11 0 0 0 0 0 0 
0 5.32367e-10 0 0 0 0 0 3.6566e-10 0 
0 0 0 0 0 0 0 0 0 
0 0 0 0 0 0 0 0 0 
0 0 0 0 0 0 0 0 0 
0 0 8.83063e-11 3.25032e-10 0 0 0 0 0 
0 5.55548e-10 0 0 0 0 0 0 0 
0 0 1.44097e-08 0 0 0 0 0 0 
0 0 0 0 0 0 0 0 0 
0 0 0 0 1.24562e-10 0 0 0 0 
0 0 0 0 0 0 0 0 0 
0 0 7.71752e-10 0 0 1.93769e-10 0 0 0 
0 0 0 0 0 0 0 0 0 
0 0 0 0 0 0 0 0 0 
0 0 0 0 0 0 0 0 0 
0 0 0 0 0 0 0 1.32356e-10 0 
0 0 0 0 0 0 0 0 0 
0 0 1.08596e-08 0 0 0 0 0 0 
0 0 0 0 0 0 0 0 0 
0 0 0 0 0 0 0 0 0 
0 0 0 0 0 0 0 0 0 
0 0 0 0 0 0 0 0 0 
0 0 0 0 0 1.5585e-10 0 0 0 
0 0 0 0 0 0 0 3.4349e-11 0 
0 0 0 0 0 0 1.74645e-08 0 0 
0 0 0 9.49835e-08 0 0 2.81801e-10 0 0 
0 0 0 0 0 0 0 0 0 
0 0 0 0 0 0 0 0 0 
0 0 0 0 0 0 0 0 0 
0 0 0 0 0 0 0 0 0 
0 0 0 0 0 0 0 0 0 
0 0 0 0 0 0 0 0 0 
0 0 0 0 0 0 0 0 0 
0 0 0 0 0 0 0 0 0 
0 0 0 0 0 0 0 0 0 
0 0 7.03642e-10 0 0 0 0 0 0 
0 0 0 0 0 0 0 0 0 
0 0 0 0 0 0 0 8.35449e-10 0 
0 0 0 0 0 0 0 0 0 
0 0 0 0 0 0 0 0 0 
0 0 0 0 0 0 0 0 0 
0 0 0 0 0 0 0 0 0 
2.35207e-10 0 0 0 0 0 0 0 0 
0 0 0 0 0 0 0 0 0 
0 0 0 0 0 0 0 0 0 
0 0 6.76991e-10 0 0 0 0 0 0 
0 0 0 0 0 0 0 0 0 
0 0 0 0 0 0 0 6.63372e-11 1.15055e-10 
0 0 0 0 0 0 0 0 0 
0 0 0 0 0 0 0 0 0 
0 0 0 0 0 0 0 0 0 
0 0 0 0 0 0 0 0 0 
0 0 0 0 0 0 0 0 0 
0 0 0 0 0 0 0 8.31992e-11 0 
1.12761e-10 5.14799e-10 0 0 0 1.57527e-10 0 0 0 
0 0 4.15401e-10 0 0 0 0 0 0 
0 0 0 0 0 0 0 0 0 
0 0 0 8.12701e-10 0 0 0 0 0 
0 0 0 0 0 0 1.05662e-09 0 0 
0 0 0 0 0 0 0 0 0 
0 0 0 0 0 0 0 0 0 
0 0 0 0 0 0 0 0 3.65139e-10 
0 0 0 0 0 0 0 0 0 
0 0 0 0 0 0 0 0 0 
0 0 0 0 0 0 0 6.82328e-07 3.24115e-07 
0 0 0 0 0 0 0 0 0 
0 0 0 0 0 0 0 0 0 
0 0 0 0 1.51161e-10 0 0 0 0 
0 0 0 0 0 0 0 0 0 
0 0 0 0 0 0 0 0 0 
0 0 0 1.20053e-07 0 0 0 0 0 
0 0 0 0 0 0 0 0 0 
0 0 0 0 0 0 0 0 0 
0 0 0 0 0 0 0 0 0 
0 0 0 6.173e-10 0 0 0 0 0 
0 0 0 3.32889e-11 0 0 0 0 0 
0 0 0 0 0 0 0 0 0 
0 0 0 0 0 0 0 0 0 
0 0 0 0 0 0 1.09168e-10 0 0 
0 0 0 0 0 0 0 0 0 
0 0 0 0 0 4.82562e-10 0 0 0 
0 0 4.57497e-10 0 0 0 3.85842e-10 0 0 
0 0 0 0 0 0 0 0 0 
0 8.24507e-10 2.94211e-10 0 6.94893e-10 0 0 0 0 
0 0 0 0 0 0 0 0 0 
0 0 0 0 0 0 0 0 0 
0 0 0 4.23015e-10 0 0 0 0 0 
0 0 0 0 0 0 0 0 0 
0 0 0 0 0 0 0 0 0 
0 0 0 0 0 0 0 0 0 
0 0 0 0 0 0 0 0 0 
0 0 0 0 0 0 0 0 0 
0 0 0 0 0 0 0 0 0 
0 0 0 0 0 0 0 0 0 
0 0 0 0 0 0 0 0 0 
0 0 0 0 0 0 0 0 0 
0 0 0 0 0 6.37051e-10 0 0 0 
0 0 0 0 0 0 0 0 0 
0 0 0 0 0 0 0 0 0 
0 0 0 0 0 0 0 0 0 
0 0 0 0 0 0 0 0 0 
0 0 0 0 3.15621e-10 0 0 0 0 
0 0 0 0 0 0 0 0 0 
0 0 0 0 0 0 0 0 0 
0 0 0 0 4.6683e-10 0 0 0 0 
0 0 0 0 0 0 0 0 0 
0 0 0 0 0 0 0 0 0 
0 0 0 5.00116e-10 0 0 0 0 0 
0 0 0 0 0 0 0 0 0 
0 0 0 0 0 0 0 7.76474e-10 0 
0 0 0 0 0 0 0 0 0 
0 0 0 0 0 0 0 0 0 
0 0 0 0 0 0 0 7.3236e-10 0 
0 0 0 0 6.29843e-11 0 0 0 0 
0 0 0 0 0 0 0 1.65605e-09 0 
0 0 0 0 0 0 0 0 0 
0 0 0 0 0 0 0 0 0 
0 0 0 0 0 0 0 0 3.81547e-10 
0 0 0 0 0 0 0 0 0 
0 0 0 0 0 1.11115e-10 0 0 0 
0 0 0 0 0 0 0 0 0 
0 0 0 0 4.56389e-10 0 0 0 2.69154e-11 
0 0 0 0 0 0 0 0 0 
0 0 0 0 0 0 0 0 0 
0 0 0 0 0 0 0 0 0 
0 0 0 0 0 0 0 0 0 
0 2.22816e-08 0 2.24407e-10 0 0 0 0 0 
0 0 0 0 0 0 0 0 0 
0 0 0 0 0 0 0 0 0 
0 0 0 7.59712e-10 0 0 0 0 0 
0 0 0 0 0 0 0 0 0 
0 0 0 0 0 0 0 0 0 
0 0 0 0 0 1.82975e-08 0 0 0 
0 0 0 0 0 0 0 0 0 
0 0 0 7.74705e-11 0 0 0 0 1.24865e-08 
0 0 0 0 0 0 0 0 0 
0 0 0 0 0 0 0 0 0 
0 0 0 0 0 0 0 0 0 
0 0 0 0 0 0 0 0 0 
0 0 0 0 0 0 0 0 0 
0 0 0 0 0 0 0 0 0 
0 0 0 0 0 0 0 0 0 
6.97856e-10 0 0 0 0 0 0 0 0 
0 0 0 0 0 0 0 0 0 
0 0 0 0 0 0 0 0 0 
0 2.84926e-10 0 0 0 0 0 0 0 
0 0 0 0 0 0 0 0 0 
0 0 0 0 0 0 0 0 0 
0 0 0 0 0 0 0 0 0 
0 0 0 0 0 0 0 0 1.97463e-10 
0 0 0 0 0 0 0 0 0 
0 0 0 0 0 7.06571e-10 0 0 0 
0 0 0 0 0 0 0 4.28813e-11 0 
0 0 0 0 0 0 0 0 0 
0 0 7.03395e-10 0 0 0 0 0 0 
0 0 0 0 0 0 0 0 0 
0 0 0 0 0 0 0 0 0 
0 0 0 0 0 0 0 0 0 
0 0 0 0 0 0 0 0 0 
0 0 0 0 0 0 0 3.30903e-10 2.01858e-10 
0 0 0 6.80203e-11 0 0 0 0 0 
0 0 0 0 0 0 0 0 0 
0 0 0 0 0 0 0 0 6.56158e-10 
0 0 0 4.60471e-10 0 5.01e-10 0 0 0 
0 0 0 0 0 0 0 0 0 
0 0 9.75362e-11 0 0 0 0 0 0 
0 0 0 0 0 0 0 0 0 
0 0 0 0 0 0 0 0 0 
0 0 0 0 0 0 0 0 0 
0 0 0 0 0 0 0 0 0 
0 0 0 0 0 0 0 0 0 
9.07434e-11 0 0 0 0 0 0 0 0 
3.00577e-10 0 0 0 5.97637e-11 0 0 0 0 
0 0 0 0 0 0 0 0 0 
0 0 0 0 0 0 0 0 0 
0 0 0 0 0 0 0 0 0 
0 0 0 0 0 0 0 0 0 
2.08527e-10 0 0 0 0 4.78892e-10 0 0 0 
0 0 0 0 0 0 4.58311e-10 4.49131e-10 0 
0 0 0 0 0 0 0 0 0 
0 2.09795e-10 0 0 0 0 0 0 0 
0 0 0 0 0 0 0 0 0 
0 9.32744e-10 0 0 0 0 0 0 0 
0 0 0 0 0 0 0 0 0 
0 0 0 0 0 0 0 0 0 
3.19798e-10 0 0 0 0 0 0 0 0 
0 1.2861e-10 0 0 0 0 0 0 0 
0 0 0 0 0 0 0 0 0 
0 0 0 8.12275e-10 0 0 0 0 0 
0 0 0 0 0 0 0 0 0 
0 0 0 0 0 0 0 0 0 
8.0712e-10 0 0 0 0 0 0 0 0 
0 0 0 0 0 0 0 0 0 
0 0 0 0 0 0 0 0 0 
8.53269e-10 0 0 0 0 0 0 0 0 
0 0 0 0 0 0 0 0 0 
0 0 0 3.30642e-08 0 0 0 0 1.316e-08 
0 0 0 0 0 0 0 0 0 
9.19535e-10 0 0 0 0 0 0 0 0 
0 0 0 0 0 0 0 0 4.29143e-10 
0 0 0 0 0 0 0 0 0 
0 0 0 0 0 0 0 0 0 
0 0 0 0 0 0 0 0 0 
0 0 0 0 0 0 0 0 0 
0 0 0 0 0 0 0 0 7.1827e-10 
5.12863e-10 0 0 0 0 0 0 0 0 
0 0 0 0 0 0 0 0 0 
0 3.98863e-10 0 2.44708e-09 1.80398e-08 0 0 0 0 
0 0 0 2.74401e-10 0 0 0 0 0 
0 0 0 0 0 0 0 0 5.3311e-10 
0 0 1.12841e-08 0 0 0 0 0 0 
0 0 0 0 0 0 0 0 0 
0 0 0 0 0 0 0 0 0 
0 0 0 0 0 0 0 0 2.33037e-08 
0 0 0 0 0 0 0 0 0 
0 0 0 0 0 0 0 0 0 
0 0 0 0 0 0 0 0 0 
0 0 0 0 0 0 0 0 0 
0 0 0 0 0 0 0 2.76373e-10 0 
0 0 0 0 0 0 0 0 0 
0 0 0 0 0 0 0 0 0 
0 0 0 0 0 3.57126e-10 0 0 0 
0 0 0 0 0 0 0 0 0 
0 8.92367e-10 0 0 0 0 0 0 0 
0 0 0 0 0 0 0 0 0 
0 0 0 0 0 0 0 0 0 
0 0 0 0 0 0 0 0 0 
0 0 0 1.23855e-10 0 0 0 0 0 
0 0 0 3.02245e-09 0 0 0 1.82716e-11 0 
0 0 0 0 0 0 0 0 0 
0 0 0 0 0 0 0 1.70211e-08 0 
0 0 0 0 0 0 0 0 0 
0 0 0 0 0 0 1.04997e-10 0 0 
0 0 0 0 0 0 0 0 0 
0 0 0 0 0 0 1.01082e-10 0 0 
0 0 0 0 0 0 0 0 0 
0 0 0 4.86896e-10 0 0 0 0 0 
0 0 0 0 0 0 0 0 0 
0 0 0 0 0 0 0 5.50967e-10 0 
0 0 0 0 0 0 0 0 0 
0 1.96113e-10 0 0 0 0 0 0 0 
0 0 4.31687e-10 1.56767e-10 0 0 0 0 0 
0 0 9.10525e-11 0 2.85949e-08 0 0 0 0 
0 0 0 0 0 0 0 0 0 
0 0 0 0 0 0 0 0 0 
0 0 0 0 0 0 0 0 0 
0 0 0 2.0994e-09 0 0 0 0 0 
0 0 0 0 0 0 0 2.31246e-10 0 
0 0 0 0 0 0 0 0 0 
0 0 2.51081e-09 0 0 0 2.05063e-10 0 2.14821e-08 
0 0 0 0 5.39799e-11 0 0 0 0 
0 0 0 0 0 0 0 0 0 
4.94502e-11 0 0 0 0 0 0 0 0 
0 0 0 0 0 0 0 0 0 
0 0 0 0 0 0 0 0 0 
0 0 0 0 3.12387e-10 0 0 0 0 
0 2.10825e-10 0 0 0 0 0 0 0 
0 0 0 0 0 0 0 
feature_3 1 2500 float
0 0 0 0 0 0 0 0 0 
0 0 0 0 0 0 0 0 0 
0 0 0 0 0 0 0 0 0 
0 0 0 0 0 0 0 0 0 
0 0 0 0 0 0 0 0 0 
0 0 0 0 0 6.11028e-10 0 0 0 
0 0 0 0 0 0 0 0 0 
3.14323e-10 0 0 0 0 0 0 0 0 
0 0 0 0 0 0 0 0 0 
0 0 0 0 0 0 0 0 0 
0 0 0 0 0 0 0 0 0 
0 0 0 0 0 0 0 0 0 
0 0 0 0 0 0 0 4.46313e-10 0 
0 0 0 3.67184e-10 0 0 7.35163e-10 0 0 
0 0 0 0 0 0 0 0 0 
0 0 0 6.73001e-10 0 0 0 0 0 
0 0 0 0 0 0 0 0 0 
0 0 0 0 0 0 0 0 0 
0 0 0 0 9.3695e-09 0 0 0 0 
0 0 0 0 0 0 0 0 0 
0 0 0 0 0 0 0 0 0 
0 0 0 0 0 0 0 0 0 
0 1.2416e-10 0 0 0 0 0 0 0 
0 0 0 0 0 0 0 0 0 
0 0 0 0 0 0 0 0 0 
0 0 0 0 0 0 0 0 0 
2.69331e-11 0 0 0 0 0 2.40474e-11 0 0 
0 0 0 0 0 0 0 0 0 
0 0 0 0 0 0 0 0 0 
0 0 0 0 0 0 0 0 0 
0 0 0 0 0 0 0 0 5.49466e-10 
0 0 0 0 0 0 0 0 0 
0 0 0 0 0 0 0 0 0 
0 0 0 0 0 0 0 0 0 
0 0 0 0 0 0 0 0 0 
0 0 0 0 0 0 0 0 0 
0 0 0 0 2.9274e-10 0 0 0 0 
0 0 0 0 0 0 0 0 0 
0 0 0 0 0 0 0 0 0 
0 0 0 0 3.84119e-11 0 0 0 0 
0 0 0 0 0 0 0 0 0 
0 0 0 0 0 0 0 0 0 
0 0 0 0 0 0 0 0 0 
0 0 0 0 0 0 0 0 0 
0 0 0 6.86892e-10 0 0 0 0 1.68832e-10 
0 0 0 0 0 0 0 0 0 
0 0 0 0 0 0 0 0 0 
1.15261e-10 0 0 0 0 0 0 0 0 
0 0 2.238e-10 0 0 0 0 0 0 
0 0 0 0 0 0 0 0 0 
4.91418e-10 0 0 0 0 0 0 0 0 
0 0 0 0 0 0 0 0 0 
0 0 0 0 0 0 0 0 0 
0 0 0 0 0 0 0 0 0 
0 0 0 0 0 0 0 0 0 
0 0 0 0 0 0 0 0 0 
0 0 0 0 0 0 0 0 0 
0 0 0 0 0 0 0 0 0 
0 0 0 0 0 0 0 0 0 
0 0 0 0 0 0 0 0 0 
0 0 0 0 9.52276e-10 0 0 3.68493e-10 0 
0 0 0 0 0 0 0 0 0 
0 0 0 0 0 0 0 0 0 
0 0 0 0 0 0 0 0 0 
0 0 0 0 0 0 0 0 0 
0 0 0 0 0 0 0 0 0 
0 0 0 0 0 0 0 0 0 
0 0 0 0 0 0 0 0 0 
0 0 0 0 0 0 1.97542e-10 0 0 
0 0 0 0 0 0 0 0 0 
0 0 0 0 0 0 0 0 0 
0 0 0 0 0 0 0 0 0 
0 0 0 6.89962e-10 0 0 0 0 0 
0 0 0 0 0 0 0 0 0 
3.75017e-10 0 0 0 0 0 0 0 0 
0 0 0 0 0 0 0 0 0 
0 0 0 0 0 0 5.13772e-10 0 0 
0 0 0 0 0 0 0 8.59757e-10 0 
0 0 0 0 0 0 0 0 0 
8.89045e-10 0 0 0 0 0 0 0 0 
0 0 0 0 0 3.53012e-10 0 0 0 
0 0 0 0 0 0 6.86526e-11 0 0 
0 0 0 0 1.80423e-10 0 0 0 0 
0 0 0 0 0 0 0 0 0 
0 0 0 0 0 0 0 0 0 
0 0 0 7.61265e-10 0 0 0 0 0 
0 0 0 0 0 0 0 0 0 
0 0 0 0 0 0 0 0 0 
5.79877e-10 0 0 0 0 0 0 0 0 
0 0 0 0 0 0 0 0 0 
0 0 0 0 0 0 0 0 0 
0 0 0 0 0 0 0 0 0 
0 0 0 0 0 0 0 0 0 
0 0 0 0 0 0 0 0 3.8078e-11 
0 2.68578e-10 0 0 0 0 0 0 3.6351e-10 
0 0 0 0 0 0 0 0 0 
0 0 0 0 0 0 0 0 0 
0 0 0 0 0 0 0 0 0 
0 0 0 0 1.02274e-07 0 0 0 0 
0 0 0 0 0 0 0 0 0 
0 0 0 0 0 0 0 0 0 
0 0 0 0 0 0 0 0 0 
0 0 2.62176e-10 0 0 0 1.61659e-10 0 0 
0 0 0 0 0 0 0 0 0 
0 0 0 0 0 0 0 0 0 
0 3.94742e-10 0 0 0 0 0 0 0 
2.69548e-10 0 0 0 0 0 0 0 0 
0 0 0 0 0 0 0 0 0 
0 0 0 0 0 7.41878e-11 0 0 0 
0 0 0 0 0 0 0 0 0 
0 0 0 0 0 0 0 0 0 
2.26127e-10 0 0 0 0 3.8996e-10 0 0 0 
0 0 0 0 0 0 0 0 0 
0 0 0 0 0 0 0 0 0 
0 0 0 0 0 0 0 0 0 
0 0 0 0 0 0 0 0 0 
0 0 0 0 0 0 0 0 0 
5.09882e-10 0 0 0 0 0 0 0 0 
0 0 0 0 0 0 0 0 0 
0 0 0 0 0 0 0 0 0 
0 0 0 0 0 0 0 0 0 
0 0 0 0 0 0 6.11067e-10 6.06317e-10 0 
0 0 2.98223e-08 0 0 0 0 0 0 
0 0 0 0 0 0 0 0 0 
0 0 0 0 2.38375e-09 0 0 0 0 
0 0 5.97242e-09 0 0 0 0 0 0 
0 0 0 0 0 0 0 0 0 
0 0 0 0 0 0 0 0 6.56392e-10 
0 2.29875e-10 0 0 0 0 0 0 0 
0 0 0 0 0 0 0 0 4.5822e-10 
0 0 0 0 0 0 0 0 0 
0 0 0 0 0 0 0 0 0 
0 0 0 0 0 0 0 0 0 
0 0 0 0 0 0 0 0 0 
0 0 0 0 0 0 0 0 0 
0 0 0 0 0 0 0 0 0 
0 0 0 0 0 0 0 0 0 
0 0 0 0 0 0 0 0 0 
0 0 0 0 0 0 0 0 2.10015e-10 
0 0 0 0 0 0 0 0 0 
0 0 0 0 0 0 0 0 0 
0 0 0 0 0 0 0 0 0 
0 0 0 0 0 0 0 0 0 
0 0 0 0 0 0 0 0 0 
0 0 0 0 6.30628e-10 1.92094e-08 0 0 2.21025e-08 
0 0 0 0 0 0 0 0 0 
0 1.60406e-08 0 0 0 0 0 0 0 
0 3.43007e-10 0 0 0 0 0 0 0 
0 0 0 0 0 0 0 0 0 
0 0 0 0 0 0 0 0 0 
0 0 0 0 0 0 0 0 3.39025e-10 
0 0 0 0 0 2.38863e-10 0 0 0 
0 0 0 0 0 0 0 0 0 
0 0 0 0 0 1.84754e-10 0 0 0 
0 0 0 0 0 0 0 0 0 
0 4.38217e-10 0 0 0 0 0 0 0 
0 0 0 0 0 0 0 0 0 
0 0 0 0 0 0 0 0 7.04699e-11 
0 0 0 0 0 0 0 0 0 
0 0 0 0 0 0 0 0 0 
0 0 0 0 0 0 0 2.38838e-10 0 
0 0 0 0 0 0 0 0 0 
0 0 3.36945e-10 0 0 0 0 0 0 
0 0 0 0 0 0 0 0 0 
0 0 0 0 0 0 0 0 0 
0 0 0 0 0 0 0 0 0 
0 0 0 0 0 0 0 0 0 
0 0 0 0 0 0 0 5.31308e-10 0 
0 0 0 0 0 0 0 0 0 
0 0 0 0 0 0 0 0 0 
0 0 0 0 0 0 0 0 0 
0 0 0 0 0 0 0 0 0 
0 5.6894e-11 0 0 0 0 0 0 0 
0 0 0 4.41744e-11 0 0 0 0 0 
0 0 0 0 0 0 0 0 0 
0 0 0 0 0 0 0 0 0 
0 0 0 0 0 0 0 0 0 
0 0 0 0 0 0 0 0 0 
0 0 0 0 1.23791e-10 0 0 0 0 
0 0 0 0 0 0 0 0 0 
0 0 0 0 2.25246e-10 3.83217e-10 0 0 0 
0 0 0 0 0 0 0 2.55074e-10 0 
0 0 0 0 0 4.96698e-10 0 0 0 
0 0 0 0 0 0 0 0 0 
0 0 0 0 0 0 0 0 0 
3.62142e-10 0 3.14408e-10 0 0 0 0 0 0 
0 3.8786e-10 0 0 0 0 0 0 0 
0 0 0 0 0 0 0 0 0 
0 0 0 3.69365e-10 0 0 0 0 0 
0 0 0 0 0 0 0 0 0 
0 0 0 0 0 0 0 1.74605e-10 0 
0 0 0 0 0 0 0 0 0 
0 0 0 0 0 0 0 0 0 
0 0 0 0 0 0 0 0 0 
0 0 0 0 0 0 0 0 0 
0 0 0 0 7.42428e-10 0 0 0 0 
0 0 0 0 0 0 0 5.05203e-10 0 
0 0 3.9083e-10 0 0 0 0 0 0 
2.8362e-08 0 0 0 0 0 0 0 0 
0 0 0 4.64699e-10 0 0 0 0 0 
1.52288e-08 0 0 0 0 0 0 0 0 
0 0 0 0 0 0 0 0 0 
0 0 0 0 0 0 0 0 4.47898e-10 
0 0 0 0 0 0 0 0 0 
0 0 0 0 0 0 0 0 0 
0 0 0 0 0 0 0 0 0 
0 0 0 0 0 0 0 0 0 
0 0 0 0 0 0 0 0 0 
0 0 0 0 0 0 0 0 0 
0 0 0 0 0 0 0 0 0 
0 0 0 0 0 0 0 0 0 
0 0 0 0 0 0 0 0 0 
0 0 0 0 0 0 0 0 0 
0 0 0 0 0 0 0 0 0 
0 0 0 0 0 0 0 0 0 
0 0 0 0 0 5.60714e-10 0 0 0 
0 0 0 0 0 0 0 0 0 
0 0 0 0 0 5.50555e-10 0 0 0 
0 0 0 0 0 3.93282e-10 0 0 0 
0 0 0 0 0 0 0 0 0 
0 0 0 0 0 0 0 0 0 
0 0 0 0 0 0 0 2.31584e-10 0 
0 0 0 4.99984e-10 0 0 0 0 0 
0 0 0 0 0 0 0 0 0 
0 0 0 0 0 0 0 0 0 
0 0 0 0 0 0 0 0 6.91941e-10 
0 0 0 0 0 0 0 0 0 
0 0 0 0 0 0 0 0 0 
0 0 0 0 0 0 0 0 0 
0 0 0 0 0 0 0 0 0 
0 0 0 0 0 3.2589e-10 0 0 0 
0 0 0 0 0 0 0 0 0 
0 0 0 0 0 5.61624e-10 0 0 0 
0 0 0 0 0 0 0 0 0 
0 0 0 0 0 0 0 0 0 
0 0 0 0 0 0 0 0 0 
0 0 0 0 0 0 0 0 0 
0 0 0 0 0 0 0 0 0 
0 0 0 0 0 0 0 0 0 
0 6.06665e-10 0 0 0 0 0 0 0 
0 0 0 0 0 0 0 2.14918e-10 0 
0 0 0 0 0 0 0 0 3.14476e-10 
0 0 0 0 0 0 0 0 0 
0 0 0 0 0 0 0 0 0 
0 0 0 0 0 0 0 0 0 
0 0 0 0 0 0 0 0 4.33321e-10 
0 0 0 0 0 0 0 0 0 
0 0 4.91681e-10 0 0 0 0 0 0 
0 0 0 0 0 0 0 0 0 
0 0 0 0 0 0 0 0 0 
1.35769e-08 0 0 0 0 0 0 0 0 
0 0 0 0 0 0 0 0 0 
0 0 0 0 0 0 0 0 0 
0 0 0 0 0 0 0 0 0 
0 0 0 0 0 0 0 0 0 
0 0 0 0 0 0 0 0 0 
0 0 0 0 0 0 0 0 0 
0 0 9.19748e-10 0 0 0 0 0 0 
0 0 0 0 0 0 0 0 0 
0 0 0 0 0 0 0 0 0 
0 0 0 0 0 0 0 0 0 
0 0 0 0 0 0 0 0 0 
0 0 0 0 0 0 0 0 0 
0 0 7.74232e-10 0 0 0 0 0 0 
0 0 0 0 0 0 0 0 0 
0 0 0 0 0 0 0 0 0 
0 0 0 0 0 0 0 0 0 
0 0 0 0 0 0 0 0 0 
0 0 0 0 0 0 0 0 0 
0 0 0 0 0 0 0 0 0 
4.1755e-10 0 0 0 0 0 0 0 0 
0 0 1.12774e-10 0 0 0 0 0 0 
0 2.6396e-10 0 0 0 0 0 0 0 
0 0 0 0 0 0 0 0 0 
0 0 0 0 0 0 0 4.32074e-10 0 
0 2.14228e-08 4.53351e-10 0 0 4.37026e-10 0 0 0 
0 0 0 0 0 0 0 0 0 
0 0 0 0 0 0 0 
feature_4 1 2500 float
0 0 0 0 0 0 0 0 0 
0 5.23951e-10 0 4.22713e-10 0 0 0 0 0 
0 0 0 4.09237e-10 0 0 7.80052e-10 0 0 
0 0 0 0 0 0 0 0 0 
0 0 0 0 0 0 0 0 0 
0 0 0 0 0 0 1.54078e-10 0 0 
0 0 0 0 0 0 0 0 0 
0 0 0 0 0 0 0 0 0 
0 0 0 5.98854e-11 0 0 0 0 0 
0 0 0 0 0 0 0 0 0 
0 0 0 0 0 0 0 0 0 
0 0 4.12665e-10 0 0 0 0 0 0 
0 0 0 0 0 0 0 0 0 
0 0 0 0 0 0 0 0 0 
0 2.63764e-10 0 0 0 0 0 0 2.95032e-10 
0 0 0 0 0 0 0 0 0 
0 4.38451e-10 0 0 0 2.11767e-10 3.46123e-10 0 0 
0 0 0 0 0 0 0 0 0 
0 0 0 0 0 0 0 0 0 
0 0 0 0 0 0 0 0 0 
0 0 0 0 0 0 0 0 0 
0 0 0 0 0 0 0 0 4.76028e-10 
0 0 0 0 0 0 0 0 0 
0 0 0 0 0 0 0 0 0 
0 0 0 0 0 0 0 0 0 
0 0 0 0 0 0 0 0 0 
0 0 0 0 0 0 0 0 0 
2.07329e-10 0 0 0 0 0 0 0 0 
0 0 0 0 0 0 0 0 0 
0 0 4.34097e-11 0 0 0 0 0 0 
0 0 0 0 0 0 0 0 0 
0 0 2.47347e-10 0 0 0 0 0 0 
0 0 0 0 0 0 0 0 0 
0 0 0 0 0 0 0 0 0 
0 0 0 0 0 0 0 0 0 
0 0 0 0 0 0 0 5.87537e-10 0 
0 0 0 0 0 0 0 0 0 
0 0 0 0 0 0 0 0 0 
0 0 5.57758e-10 0 0 0 0 0 0 
0 0 0 0 0 0 0 0 0 
0 0 0 0 0 0 0 0 0 
0 0 0 0 0 0 0 0 0 
0 0 0 0 0 0 0 0 0 
0 1.15302e-10 0 0 0 0 0 0 0 
0 0 0 0 0 0 1.23105e-10 0 0 
0 0 0 0 0 0 0 0 0 
0 0 0 0 0 0 0 0 0 
0 0 0 0 0 0 0 0 3.95563e-10 
0 0 0 0 5.49942e-10 0 0 0 0 
0 0 0 0 0 0 0 0 0 
0 0 0 0 0 0 0 0 0 
0 0 0 2.49788e-10 0 0 0 0 0 
0 0 0 0 0 0 0 0 0 
0 0 0 0 0 0 0 0 0 
0 0 0 0 0 0 0 0 0 
0 0 0 0 0 0 0 0 0 
0 0 0 0 0 2.50601e-10 0 0 0 
0 0 0 0 0 0 0 0 0 
0 6.44548e-10 0 0 0 0 0 0 0 
0 0 0 2.0157e-10 0 0 0 0 0 
0 0 0 0 0 0 0 0 0 
0 0 0 0 0 0 0 0 0 
0 0 0 0 0 0 3.94149e-10 0 0 
0 0 0 0 0 0 0 0 0 
0 0 0 0 0 0 0 0 0 
0 0 0 0 0 0 0 0 0 
0 0 0 0 0 0 0 0 0 
0 0 1.95655e-10 0 0 0 0 0 0 
0 0 0 0 0 0 0 0 0 
0 0 0 0 0 0 0 0 0 
0 0 9.59339e-11 0 0 0 0 0 0 
0 0 0 0 0 0 0 0 0 
0 0 0 0 0 0 0 0 0 
0 0 0 0 0 0 0 0 0 
0 0 0 0 0 0 0 0 0 
0 0 0 0 0 0 0 0 0 
0 0 0 0 0 0 0 0 0 
0 0 0 0 0 0 0 0 0 
0 0 0 0 0 0 0 0 0 
0 0 0 0 0 0 0 0 0 
0 0 0 0 0 0 0 0 0 
0 0 0 0 0 0 0 4.4534e-10 3.61267e-10 
0 0 0 0 0 0 0 0 0 
0 0 0 0 0 0 0 0 0 
0 0 0 0 0 0 0 0 0 
0 0 0 0 0 0 0 0 0 
0 0 0 0 0 0 0 0 0 
0 0 0 0 0 0 0 0 0 
0 0 0 0 0 0 0 0 0 
0 0 0 0 0 0 0 0 0 
0 0 0 3.21606e-10 0 0 0 0 0 
0 0 0 0 0 0 0 0 0 
0 0 0 0 0 0 0 0 0 
0 0 0 0 0 0 0 0 0 
0 0 0 0 0 0 0 0 0 
0 0 0 0 0 0 0 0 0 
0 0 0 0 0 0 0 0 0 
0 0 0 0 0 0 0 0 0 
0 0 0 0 0 0 0 0 3.80474e-10 
0 0 0 0 0 0 0 0 0 
0 0 0 0 0 0 5.95271e-10 0 0 
0 0 0 0 0 0 0 0 0 
0 2.35476e-10 0 0 0 0 0 0 0 
7.92621e-10 0 0 0 0 0 0 0 0 
0 0 0 0 0 0 0 0 0 
0 0 0 0 0 0 0 0 0 
0 0 0 0 0 0 0 0 0 
0 0 5.28992e-10 0 0 0 0 0 7.13499e-10 
0 0 0 0 0 0 0 0 0 
0 0 0 0 0 0 0 0 0 
0 0 0 0 0 0 0 0 0 
0 0 0 5.48155e-10 0 0 0 0 0 
0 0 0 0 0 0 0 0 0 
0 0 0 0 0 0 0 0 0 
0 0 0 0 0 0 0 0 0 
0 0 0 0 0 0 0 0 0 
0 0 0 0 0 0 0 0 0 
0 0 0 0 0 0 0 0 0 
0 0 0 0 0 0 0 0 0 
0 0 0 0 0 0 2.6321e-10 7.99851e-10 0 
0 0 0 0 0 0 0 0 0 
0 0 0 0 0 0 0 3.51399e-10 0 
0 0 0 0 0 0 0 0 0 
0 0 0 0 0 0 0 0 0 
0 0 0 0 0 0 0 0 0 
0 0 0 0 0 0 0 0 0 
0 0 0 0 0 0 0 0 0 
0 0 0 0 0 0 0 0 0 
0 0 0 0 0 0 0 0 0 
0 0 0 0 0 0 0 0 0 
0 0 0 0 0 0 0 0 0 
0 0 0 0 0 0 0 0 0 
0 0 0 0 0 0 0 0 0 
0 0 0 0 0 0 0 0 0 
0 0 0 0 0 0 0 0 0 
0 0 0 0 0 0 0 1.13616e-10 0 
0 0 0 0 0 0 0 0 0 
0 0 0 0 0 0 0 0 0 
0 0 0 0 0 0 0 0 0 
0 0 0 0 0 0 0 0 0 
0 8.03904e-10 0 0 0 1.70582e-10 0 0 0 
0 0 0 0 0 0 0 0 0 
0 0 0 0 0 0 0 0 0 
0 7.43228e-11 0 0 0 0 0 3.41217e-10 0 
0 0 0 0 0 0 0 0 0 
0 0 0 0 0 0 0 0 0 
0 0 0 0 0 0 0 0 0 
0 0 0 0 0 0 1.09093e-10 0 0 
0 0 0 0 0 0 0 0 0 
0 0 0 0 0 0 0 0 4.14619e-10 
0 0 0 0 0 0 0 0 0 
0 0 0 7.05999e-10 0 0 0 0 0 
0 0 0 0 0 0 0 0 0 
0 0 0 0 0 0 0 0 0 
0 0 0 0 0 0 8.22702e-10 0 0 
0 0 0 0 0 0 0 1.72804e-10 0 
0 0 0 0 0 0 0 0 0 
0 0 0 7.99712e-10 4.10193e-10 0 0 0 0 
0 0 0 0 0 0 0 0 0 
0 0 0 0 0 0 0 0 0 
0 0 0 0 0 0 0 0 0 
0 0 0 0 0 0 0 0 0 
0 9.94209e-11 0 0 0 0 0 0 0 
0 0 0 0 0 0 0 0 0 
0 0 0 0 0 0 0 0 0 
0 0 0 0 0 0 0 0 0 
0 0 0 0 0 0 0 0 0 
0 0 0 0 0 0 0 0 0 
0 0 0 0 0 0 0 0 0 
0 0 0 0 0 0 0 0 0 
0 0 0 0 0 0 0 0 0 
0 3.105e-10 0 0 0 0 5.92012e-10 0 0 
0 0 0 0 0 0 0 0 0 
0 0 0 0 0 0 0 0 0 
0 0 0 0 0 0 0 1.46455e-10 0 
0 4.49887e-10 0 0 0 0 2.56492e-10 0 0 
4.32141e-10 0 0 0 0 0 0 3.82309e-10 0 
0 0 0 0 0 0 0 0 0 
0 0 0 0 0 0 0 0 0 
0 0 0 0 0 0 0 0 0 
0 0 0 0 0 0 3.32499e-10 0 0 
0 0 0 0 0 0 0 0 0 
0 0 0 0 0 0 0 0 0 
0 0 0 0 0 0 0 0 0 
0 0 0 0 0 0 0 0 0 
0 0 0 0 0 0 0 0 0 
3.35122e-10 0 0 0 0 0 0 0 0 
0 0 0 0 0 0 0 0 0 
0 0 0 0 0 0 0 5.77497e-10 0 
0 0 0 0 0 0 0 0 0 
0 0 0 0 0 0 0 0 0 
0 0 0 0 0 7.13751e-10 0 0 0 
0 2.90079e-11 0 0 0 0 0 0 0 
0 0 0 0 6.0956e-10 0 5.77042e-10 0 0 
0 0 0 0 0 0 0 0 0 
0 0 0 0 0 0 0 0 0 
0 0 0 0 0 0 0 0 0 
0 0 0 0 0 0 0 0 0 
0 0 0 0 0 0 0 0 0 
0 0 0 0 0 0 0 0 0 
0 0 0 0 0 0 0 0 0 
0 0 0 0 0 0 0 0 0 
1.64448e-10 0 0 0 0 0 0 0 0 
0 0 0 0 0 0 0 0 0 
0 0 0 0 0 0 0 0 0 
0 0 0 0 0 0 0 0 0 
0 0 0 0 0 0 0 0 0 
0 0 0 0 0 0 0 0 0 
0 0 0 0 0 0 0 0 0 
4.79218e-10 0 3.96486e-10 0 0 0 0 0 0 
0 0 0 0 0 0 0 0 0 
0 0 0 0 0 0 0 0 0 
0 0 0 1.85896e-10 0 0 0 0 0 
0 0 0 0 0 0 3.69376e-10 0 0 
0 0 0 0 0 0 0 0 0 
0 0 0 0 0 0 0 0 0 
0 0 0 0 0 0 0 0 0 
0 0 0 0 0 0 0 0 0 
0 0 0 0 0 0 0 0 0 
0 0 0 0 0 0 0 0 0 
0 0 0 0 0 0 0 0 0 
0 0 0 0 0 0 0 0 0 
0 0 0 0 0 0 0 0 0 
0 0 0 0 0 0 0 0 0 
0 0 3.00918e-10 0 0 0 0 0 0 
0 0 0 0 0 0 0 0 0 
0 0 0 0 0 0 0 0 0 
0 0 0 0 0 0 0 0 0 
2.53415e-11 0 0 0 0 0 0 3.7258e-10 0 
0 0 0 0 0 0 0 0 0 
0 0 0 0 0 0 0 0 0 
3.4121e-10 0 0 0 6.7562e-11 0 0 0 0 
0 0 0 0 0 0 0 0 0 
0 0 0 0 0 0 0 0 0 
0 0 0 0 0 0 0 0 0 
0 0 0 3.67253e-10 0 0 8.87137e-10 0 0 
0 0 0 0 0 0 0 0 0 
0 0 0 0 0 0 0 0 0 
0 0 0 0 0 0 0 0 0 
0 0 0 0 0 0 0 2.23409e-10 0 
0 0 0 0 0 0 0 0 0 
0 0 0 0 0 2.49063e-10 0 0 0 
0 0 0 0 0 0 0 0 0 
0 0 0 0 0 0 0 8.27232e-10 0 
0 0 0 0 0 0 0 0 0 
0 0 0 0 0 0 0 0 0 
0 0 6.16211e-10 0 0 0 0 0 0 
0 0 0 0 0 0 0 0 0 
0 0 0 0 0 0 0 0 0 
0 0 3.76765e-10 0 0 0 0 0 0 
0 0 0 0 0 0 0 0 0 
0 0 0 0 0 0 5.79483e-11 0 0 
0 0 0 0 0 4.31388e-10 0 0 0 
5.90511e-10 0 0 0 0 0 0 0 0 
0 0 0 0 7.13143e-10 0 0 0 0 
0 0 0 0 0 0 0 0 0 
0 0 0 0 0 0 0 0 0 
0 0 0 0 0 0 0 0 0 
0 4.22993e-10 0 2.67228e-10 0 0 0 0 0 
0 0 0 4.28397e-10 0 0 0 0 0 
0 0 0 0 0 0 0 0 0 
0 0 0 0 0 0 0 0 0 
0 0 4.49646e-10 0 0 0 0 0 0 
0 0 0 0 0 0 0 0 0 
0 0 0 0 0 0 0 0 0 
0 0 1.75762e-10 0 0 0 0 0 0 
0 0 0 0 0 0 0 0 0 
0 0 0 0 0 0 3.38222e-10 0 0 
0 0 0 0 0 0 0 7.9325e-10 0 
0 0 0 0 0 0 0 0 0 
0 0 0 0 0 0 0 0 0 
0 0 0 0 0 0 0 0 0 
0 0 0 0 0 3.02581e-10 0 0 0 
0 7.22679e-10 0 0 0 0 0 0 0 
0 0 0 0 0 0 0 0 0 
0 0 0 0 0 2.35087e-10 0 0 0 
0 0 0 0 0 0 0 0 0 
0 0 0 0 0 0 0 
feature_5 1 2500 float
0 0 0 0 0 0 0 0 0 
0 0 0 0 0 0 0 0 0 
0 0 0 0 0 0 0 0 0 
0 0 0 0 0 0 0 0 0 
8.1755e-11 0 0 0 0 3.26679e-10 0 0 0 
0 0 0 0 0 0 0 0 0 
0 6.05624e-10 0 0 0 0 0 0 0 
0 0 0 0 0 0 0 0 0 
0 0 0 0 0 0 0 0 0 
0 0 0 0 0 0 0 7.82407e-10 0 
0 0 7.39451e-10 0 0 0 0 0 0 
3.31226e-08 0 8.2197e-10 0 0 0 0 0 0 
0 0 0 0 2.57407e-10 0 0 0 0 
0 0 0 0 0 0 0 0 0 
0 0 0 0 0 0 0 0 0 
0 0 0 0 0 0 5.52813e-10 0 0 
0 0 0 0 0 0 0 0 6.24539e-10 
0 0 0 0 0 0 7.4607e-11 0 0 
0 0 0 0 0 0 0 0 0 
0 0 0 0 0 0 0 0 0 
0 0 0 0 0 0 0 0 0 
0 0 0 3.05519e-08 0 0 3.2621e-10 0 2.50998e-08 
0 0 0 2.99252e-10 0 0 0 0 0 
0 0 0 0 0 0 0 0 0 
0 0 1.40513e-08 0 0 0 0 0 0 
0 0 0 0 0 0 0 0 6.97682e-10 
0 0 0 0 0 0 0 0 0 
0 0 1.50995e-08 0 0 0 0 0 0 
0 0 0 0 0 0 0 4.14957e-11 0 
0 0 0 0 0 0 0 0 0 
0 0 0 0 0 0 0 0 0 
0 0 0 0 0 0 0 0 0 
0 0 0 0 2.71228e-10 0 0 0 0 
0 0 0 0 0 0 0 0 0 
0 0 0 0 0 0 0 0 0 
0 0 0 0 0 0 0 0 0 
0 0 0 0 0 0 0 0 0 
0 0 0 0 0 0 0 1.37823e-08 0 
0 0 0 4.85262e-10 0 0 0 0 0 
0 0 0 0 0 0 0 0 0 
0 0 0 0 0 0 0 0 0 
0 0 0 0 0 0 0 0 0 
0 0 0 0 0 0 0 0 0 
1.15755e-10 0 0 0 5.91335e-10 0 0 0 0 
0 0 0 0 0 0 1.84574e-08 0 0 
0 0 0 1.2691e-07 0 0 0 0 4.24372e-09 
0 0 0 8.34333e-10 0 1.98938e-10 0 0 0 
0 0 0 0 0 0 0 0 3.44446e-10 
0 0 0 0 0 0 0 0 0 
0 0 0 0 0 0 0 0 0 
0 0 0 0 0 0 0 0 0 
0 5.51371e-10 0 0 0 0 0 0 0 
0 0 0 0 0 0 0 0 0 
0 0 0 0 0 0 0 0 0 
0 0 0 0 0 0 0 0 0 
0 0 0 4.54161e-10 0 0 0 0 0 
2.32833e-08 0 0 0 0 0 0 0 0 
0 0 0 0 0 0 0 8.7061e-10 0 
0 3.70058e-10 0 0 0 0 0 0 5.60263e-10 
0 1.45107e-10 0 0 0 0 0 0 0 
0 0 0 0 0 0 0 1.88754e-08 0 
0 0 0 0 0 3.45324e-11 0 0 0 
0 0 0 0 0 0 0 0 0 
0 0 0 0 0 0 0 0 0 
0 0 0 0 0 0 0 0 0 
0 0 0 0 0 0 0 0 0 
0 0 0 0 0 0 0 0 0 
0 0 0 0 0 0 0 0 0 
0 0 0 0 0 0 0 0 0 
0 0 0 0 0 0 0 0 0 
0 0 0 0 0 0 0 0 0 
0 0 0 0 0 0 3.44514e-10 2.29358e-10 0 
0 0 0 0 0 0 0 0 0 
0 0 0 0 0 0 0 0 0 
0 0 0 8.62347e-10 0 0 7.91299e-10 0 0 
0 4.21355e-10 0 0 0 0 7.25542e-10 0 0 
0 0 0 0 0 0 0 0 0 
0 0 0 0 0 0 0 0 0 
2.5189e-08 0 0 0 0 0 0 0 0 
0 0 0 0 0 0 0 0 0 
4.10175e-10 0 0 0 0 0 0 0 0 
0 0 5.42009e-10 0 0 0 0 0 0 
0 0 0 0 0 0 2.62065e-08 0 0 
0 0 0 0 0 0 0 0 0 
0 0 0 0 0 0 0 8.77961e-07 3.92359e-07 
0 3.82283e-10 0 0 0 0 0 0 0 
0 0 0 0 0 0 0 0 0 
0 0 0 0 0 0 0 2.30676e-10 0 
0 0 0 0 0 0 0 0 0 
0 0 0 0 0 0 0 0 0 
0 0 0 0 0 0 0 0 0 
0 0 0 0 0 0 0 0 2.39595e-11 
0 0 0 0 0 0 0 0 0 
0 0 0 0 0 0 0 0 0 
0 0 1.14515e-10 0 0 0 0 0 0 
0 0 0 3.96557e-10 0 0 0 4.71655e-10 0 
0 0 0 0 0 0 0 0 0 
0 0 0 0 0 0 0 0 0 
0 0 0 0 0 0 0 0 0 
0 0 0 0 0 0 0 0 0 
0 0 0 0 0 7.919e-11 0 0 0 
1.09733e-10 0 0 0 0 0 0 0 5.2712e-10 
0 0 0 0 0 0 0 0 0 
0 0 0 0 0 0 0 0 0 
0 0 0 0 0 0 0 3.13026e-08 0 
0 0 0 0 0 0 0 0 0 
0 1.24248e-08 0 0 0 0 0 0 0 
0 4.00636e-10 0 0 0 0 0 0 0 
0 0 0 1.36309e-08 0 0 0 0 0 
0 0 0 0 0 0 0 0 0 