# vtk DataFile Version 5.1
vtk output
ASCII
DATASET STRUCTURED_POINTS
DIMENSIONS 50 50 1
SPACING 1 1 1
ORIGIN 0 0 0
POINT_DATA 2500
FIELD FieldData 6
feature_1 1 2500 float
0 0 0 0 9.20696e-10 0 0 0 0 
0 0 0 0 0 0 0 0 0 
0 0 0 0 0 0 1.06282e-09 0 0 
0 0 0 0 0 0 0 0 0 
0 0 0 0 0 0 0 0 7.97272e-10 
0 0 0 0 0 0 0 0 0 
0 0 8.57e-10 0 1.29959e-10 0 0 0 0 
0 0 0 0 0 0 4.71083e-10 0 0 
0 0 0 0 0 0 0 0 0 
0 0 0 0 0 0 0 0 0 
4.96113e-10 0 0 7.89782e-10 0 0 0 1.06115e-09 8.99366e-10 
0 5.1439e-10 0 0 0 0 0 0 0 
0 0 0 0 0 0 0 0 0 
0 0 0 0 0 0 0 0 0 
0 2.44533e-10 0 0 0 0 0 0 0 
0 0 0 0 0 0 0 0 0 
0 5.82673e-10 0 0 0 0 0 0 0 
0 0 8.8485e-10 0 0 0 0 0 0 
0 0 0 0 0 0 0 0 0 
0 0 0 0 0 0 0 0 0 
0 0 0 0 0 0 0 0 0 
0 0 0 0 0 0 0 3.23912e-10 0 
0 0 0 0 0 0 0 0 0 
0 0 0 0 0 0 0 0 0 
0 0 0 0 1.98733e-10 0 0 6.78192e-10 3.79192e-10 
0 0 0 0 0 0 0 0 0 
0 0 0 0 0 0 0 0 0 
0 0 0 0 0 0 0 0 9.06262e-10 
0 0 0 0 0 0 0 0 0 
0 0 0 0 0 0 0 0 0 
0 0 0 0 0 0 0 0 0 
0 0 0 8.19504e-10 0 0 0 0 0 
0 0 0 0 0 0 0 0 0 
0 0 0 0 0 0 0 0 0 
0 1.17905e-09 0 0 8.94751e-11 0 0 0 0 
0 0 0 2.75064e-10 0 0 0 0 0 
0 0 0 0 0 0 0 0 0 
0 0 0 0 0 8.60609e-11 0 0 0 
0 0 0 0 0 0 0 0 0 
0 0 0 0 0 0 0 9.75643e-10 0 
0 0 0 4.29285e-10 0 0 0 0 2.64758e-08 
1.17467e-09 0 0 0 0 0 0 0 6.7726e-06 
5.1107e-08 0 0 0 0 0 0 0 0 
0 0 0 0 0 0 0 0 0 
0 0 0 0 0 0 0 0 0 
0 0 0 6.78075e-06 0 0 0 0 0 
0 0 0 0 6.79156e-06 0 0 0 0 
0 0 0 0 0 0 0 0 0 
0 1.08134e-09 0 0 0 0 0 0 0 
0 0 0 0 0 0 0 0 0 
0 5.27276e-10 0 0 0 0 0 0 4.26112e-10 
0 0 0 0 0 0 0 0 2.98229e-08 
0 0 0 0 0 0 0 0 0 
0 0 2.64485e-09 0 0 0 0 0 0 
0 0 0 0 0 0 0 0 0 
0 0 0 0 0 0 0 0 0 
3.89225e-10 0 0 0 0 0 0 0 0 
0 0 0 7.18672e-06 0 1.084e-09 0 0 0 
0 0 0 0 0 0 0 0 0 
0 0 3.13342e-08 0 1.29664e-09 0 0 0 0 
6.87291e-06 0 0 0 0 6.50275e-10 0 0 0 
0 0 0 0 6.46718e-10 0 0 0 0 
0 0 7.19072e-06 0 0 7.02493e-06 0 7.35833e-06 1.03827e-09 
0 0 0 6.71722e-10 0 0 0 0 0 
0 0 0 0 0 0 8.0984e-06 8.39587e-06 0 
0 3.79154e-08 6.88855e-06 0 0 3.28328e-08 0 0 0 
0 0 0 0 0 0 0 0 0 
0 0 0 0 0 6.11417e-08 7.169e-06 0 0 
0 0 0 0 0 0 0 0 0 
0 0 0 0 3.00865e-10 0 0 0 0 
0 1.32204e-09 0 0 7.25461e-06 0 0 3.4934e-08 0 
6.93529e-06 0 0 0 0 0 0 0 0 
0 0 0 6.27381e-10 0 0 0 0 0 
0 1.53365e-08 0 0 0 0 0 0 0 
0 0 0 0 0 0 0 0 6.80414e-06 
0 0 6.81109e-06 0 0 0 0 0 0 
0 1.26436e-09 0 0 0 0 0 0 0 
2.49026e-10 0 9.16657e-10 0 0 0 0 0 0 
0 0 0 0 0 7.60746e-10 0 0 0 
0 0 0 0 0 0 0 0 0 
0 3.25219e-10 0 0 2.22267e-08 0 0 5.36259e-08 0 
0 0 0 0 0 0 0 0 0 
0 0 0 0 0 0 0 0 0 
0 0 0 0 0 0 0 0 0 
0 0 2.57216e-10 0 0 6.91632e-06 0 2.59402e-07 7.38922e-06 
0 0 0 0 0 0 0 0 0 
0 0 0 0 0 0 0 6.87014e-06 6.58923e-08 
0 0 0 0 0 0 0 0 0 
0 0 0 0 0 0 0 0 1.41175e-09 
0 0 0 0 0 0 0 0 0 
0 4.68264e-08 0 7.64015e-06 0 0 0 0 0 
9.26569e-10 1.66429e-08 6.7995e-06 3.14905e-08 0 0 0 3.42176e-10 0 
0 0 0 0 5.72691e-08 0 0 0 0 
0 0 0 0 0 0 0 0 0 
0 0 0 0 0 0 0 0 0 
0 0 0 5.39318e-10 3.42002e-10 0 0 0 0 
7.45432e-06 0 0 7.39093e-09 0 1.38393e-09 0 0 0 
0 0 2.20848e-08 0 0 0 8.18873e-09 0 0 
0 0 0 0 6.12658e-07 0 0 0 0 
1.12095e-09 0 5.42656e-10 5.24771e-10 0 0 0 9.65009e-10 0 
6.15691e-10 0 0 1.36394e-09 0 0 0 0 0 
0 0 6.8389e-06 0 0 0 3.88336e-08 0 0 
0 2.97511e-10 0 0 0 0 0 0 6.97847e-06 
0 0 0 0 0 8.10882e-06 0 0 7.50061e-06 
0 7.56063e-06 0 0 0 0 4.30482e-10 0 0 
0 0 0 0 0 0 0 0 0 
0 0 0 0 0 0 0 0 0 
0 0 7.07912e-06 0 7.22909e-06 7.35473e-08 8.60308e-06 9.30495e-06 0 
0 0 0 4.93747e-08 0 0 0 0 0 
0 5.61045e-08 0 0 0 7.99574e-06 0 0 0 
0 0 0 0 0 0 0 0 0 
0 0 0 7.77973e-10 0 0 0 0 0 
0 0 0 0 0 0 0 0 0 
0 0 0 8.41411e-06 4.21909e-08 8.77534e-10 0 0 0 
0 0 0 0 0 0 0 0 7.41789e-06 
0 0 7.4395e-06 0 0 0 0 0 0 
0 0 0 0 0 0 0 0 0 
0 0 0 0 0 0 0 0 0 
0 0 0 0 0 0 0 0 3.12797e-08 
0 0 0 0 0 0 0 0 0 
0 7.09013e-06 0 7.53799e-06 0 0 0 2.91411e-08 0 
0 0 0 0 0 0 0 0 0 
0 0 0 0 0 0 0 0 2.55269e-08 
8.01412e-06 8.01964e-06 0 0 3.49033e-10 0 0 6.78876e-06 0 
0 0 0 0 1.98668e-08 0 0 0 0 
7.23119e-11 0 0 0 0 0 0 0 6.99295e-08 
0 0 0 0 0 0 0 0 0 
0 0 0 0 0 0 0 0 0 
0 0 0 0 1.6731e-08 0 0 0 0 
0 0 0 4.41446e-08 0 0 3.26768e-08 6.8635e-06 0 
0 0 0 0 0 0 7.18389e-06 0 0 
0 0 0 7.13907e-06 0 7.12207e-06 0 0 6.83554e-06 
2.73336e-08 0 0 0 6.40686e-10 0 0 0 0 
0 0 0 0 0 0 0 0 0 
0 0 4.26592e-10 0 0 0 0 0 0 
0 0 0 0 0 0 0 0 0 
0 0 0 7.20068e-06 0 0 0 0 0 
0 1.3875e-08 0 0 0 0 0 0 0 
0 0 0 0 0 0 0 0 0 
0 0 0 0 0 0 0 0 0 
0 0 0 0 0 0 0 0 0 
6.95459e-06 0 0 0 0 8.2119e-06 0 0 0 
0 0 0 0 0 0 0 1.03521e-08 0 
0 0 0 0 0 0 3.55764e-10 0 0 
0 0 0 0 0 0 0 0 0 
0 0 0 0 0 0 0 0 0 
0 0 0 0 1.29121e-09 0 0 2.18779e-08 7.53128e-06 
3.14701e-06 8.61526e-06 0 0 0 0 0 0 0 
0 4.06999e-10 0 0 0 0 0 0 0 
3.26323e-08 0 0 0 0 0 0 0 0 
0 0 0 0 0 0 0 0 0 
0 0 0 0 0 0 0 0 0 
0 0 6.97169e-06 0 0 7.64605e-06 0 0 0 
6.90787e-06 0 0 0 1.87255e-08 0 0 0 0 
0 0 0 0 6.76949e-06 3.30298e-08 0 0 0 
0 0 0 3.43533e-10 0 0 0 0 0 
0 0 0 0 0 0 0 0 6.74097e-08 
0 0 0 0 0 0 0 0 0 
0 0 0 0 0 0 0 7.05574e-06 0 
6.70371e-06 0 0 0 6.7968e-06 0 1.13788e-09 0 0 
0 0 0 0 0 0 0 0 0 
0 0 0 0 0 0 0 0 0 
6.88051e-06 0 0 0 6.8771e-06 0 0 0 0 
0 0 0 0 0 0 0 0 0 
0 0 0 2.52367e-08 0 0 0 0 0 
0 0 7.76151e-10 3.62963e-10 0 0 0 0 0 
0 0 0 0 0 0 0 0 0 
0 0 0 0 0 0 0 8.17886e-06 0 
0 0 0 3.77234e-09 0 0 0 0 0 
0 0 0 0 0 0 0 0 0 
0 0 2.92271e-08 6.81588e-06 1.35098e-08 0 0 0 0 
0 0 0 0 0 3.27674e-10 0 0 0 
0 0 0 0 0 0 0 0 0 
0 0 0 8.05716e-06 0 0 0 0 0 
0 0 0 6.79445e-06 1.30803e-09 0 0 0 0 
0 0 0 0 0 0 0 0 0 
0 0 0 0 0 0 0 0 0 
0 0 0 0 0 0 0 0 0 
0 0 0 0 0 0 0 0 0 
0 8.43446e-10 0 0 0 0 0 1.39381e-09 0 
0 0 8.86821e-10 0 0 0 0 0 0 
4.83435e-08 0 0 0 0 0 0 0 1.4017e-09 
7.23302e-06 0 0 0 0 0 0 0 0 
0 0 1.00695e-09 0 0 0 0 0 0 
0 0 0 0 0 0 0 6.78306e-06 8.46434e-10 
1.16424e-08 0 4.14802e-10 0 0 0 0 0 0 
0 0 0 0 3.17903e-08 6.7806e-06 4.33924e-08 0 0 
0 0 0 0 7.18658e-06 0 1.0555e-07 6.88704e-06 0 
0 0 0 0 0 0 0 0 0 
0 0 0 0 0 0 0 0 0 
0 0 0 0 0 0 0 4.01237e-08 6.88294e-06 
4.05537e-08 0 0 0 0 0 3.63301e-08 0 0 
0 0 0 0 0 0 0 4.47155e-10 0 
3.22228e-10 0 1.61791e-08 0 0 0 0 0 0 
0 0 0 0 0 0 0 0 0 
8.54083e-10 0 0 6.77716e-06 0 0 0 0 0 
0 0 0 0 0 0 0 0 0 
0 0 6.96489e-06 4.60067e-08 0 0 0 0 0 
0 1.45968e-09 0 0 0 0 0 0 0 
0 0 0 0 0 0 0 0 0 
0 0 0 0 0 0 0 0 0 
0 0 0 0 0 8.31015e-11 0 8.03117e-06 4.17725e-10 
0 6.66873e-10 3.19977e-10 0 8.02699e-06 8.10438e-06 0 0 0 
6.98906e-06 0 0 0 0 0 0 0 0 
0 0 0 0 0 0 0 0 0 
0 0 0 0 0 0 0 0 0 
0 0 1.04147e-09 0 0 0 5.35508e-10 0 0 
5.02851e-10 0 0 0 0 0 0 5.3257e-10 0 
0 0 0 0 3.80094e-08 0 1.03489e-09 0 0 
0 0 0 0 1.06475e-09 1.34489e-09 0 0 0 
0 0 0 0 0 0 0 0 0 
0 0 0 0 0 0 0 0 0 
0 0 1.73703e-08 0 0 0 2.89909e-10 0 0 
0 0 0 0 0 0 0 0 0 
8.44022e-06 0 8.29686e-08 7.2173e-06 0 0 0 0 0 
0 0 0 9.10909e-10 0 0 0 0 0 
0 0 0 0 0 0 0 0 0 
0 0 0 0 0 2.23399e-08 6.80305e-06 0 0 
7.00166e-06 0 0 0 0 0 0 0 0 
0 1.00737e-09 0 0 4.66703e-10 8.8465e-06 0 7.48879e-06 0 
0 0 0 0 7.5611e-10 0 0 0 1.13102e-08 
2.79016e-08 0 0 0 1.49487e-08 0 0 0 0 
0 0 0 0 0 8.06722e-10 0 0 7.99481e-10 
0 0 0 0 0 5.45668e-08 0 0 0 
0 0 0 4.93991e-10 0 0 0 6.84194e-06 0 
0 0 0 0 0 0 0 0 0 
0 8.17698e-06 0 0 0 6.9114e-06 0 0 6.88261e-06 
1.26999e-09 0 0 0 2.76756e-10 8.53426e-10 0 7.69846e-10 0 
0 0 0 0 1.30376e-09 1.01358e-09 0 0 0 
2.79054e-08 6.97875e-06 0 0 0 0 0 0 0 
0 0 0 0 0 0 0 0 0 
3.54719e-08 0 0 0 7.05585e-06 0 8.42083e-06 0 7.14829e-06 
0 0 0 0 0 0 0 0 0 
0 0 0 0 0 0 0 0 0 
0 0 0 0 0 0 0 0 0 
0 0 0 0 0 9.26853e-10 0 0 0 
0 0 0 0 0 6.79317e-06 2.332e-08 0 0 
6.2758e-08 0 4.31914e-08 0 0 0 0 3.10037e-08 6.87176e-06 
0 0 0 0 0 0 1.12597e-09 0 0 
0 0 0 0 0 0 0 0 0 
0 0 0 0 2.39343e-10 0 0 0 0 
0 0 0 0 5.87971e-10 0 0 0 0 
0 0 0 0 0 0 0 0 0 
0 0 0 0 0 0 0 0 0 
0 0 0 0 0 0 0 0 0 
0 0 0 0 0 0 0 0 0 
0 0 0 0 0 0 0 0 0 
0 0 0 0 0 0 1.96496e-08 0 0 
0 2.83589e-10 0 0 0 0 0 0 0 
0 0 0 0 0 0 0 0 0 
0 0 0 0 0 0 0 1.01013e-09 0 
0 0 0 0 0 0 0 0 0 
0 0 0 0 0 0 0 0 0 
0 0 0 0 0 0 0 0 0 
0 0 0 0 0 7.00219e-09 0 8.27889e-10 0 
0 0 0 0 0 0 0 0 0 
0 0 0 0 0 0 0 0 0 
0 0 0 0 0 0 0 0 0 
0 0 0 0 0 0 0 0 0 
0 0 0 0 0 0 0 0 0 
0 0 0 8.5053e-10 0 0 0 0 0 
0 0 0 0 0 0 0 0 0 
0 0 0 0 0 0 0 0 0 
0 0 0 0 0 0 0 0 0 
0 0 0 0 0 0 8.82583e-10 0 1.10394e-09 
0 0 0 0 0 0 0 0 0 
0 0 0 0 0 0 0 0 0 
0 0 0 0 0 5.13488e-10 0 0 0 
0 3.97218e-10 0 0 0 0 0 3.77671e-11 0 
0 0 0 4.22201e-10 0 0 0 0 0 
0 0 0 0 0 0 0 0 0 
0 0 0 0 0 0 0 0 0 
0 0 0 0 0 0 0 0 0 
0 0 0 0 0 6.56293e-10 0 0 0 
0 0 0 0 0 0 0 0 4.46968e-10 
0 0 0 0 0 0 0 0 0 
0 0 0 0 0 0 0 0 0 
0 0 0 0 0 0 0 
feature_2 1 2500 float
0 0 0 0 0 0 0 0 0 
0 0 0 0 0 0 0 0 0 
0 0 0 0 0 0 0 0 0 
0 0 0 0 0 0 0 0 0 
0 0 0 0 0 0 0 0 0 
0 0 0 9.13952e-10 0 0 0 0 0 
0 0 0 0 0 1.27971e-09 3.33385e-10 0 0 
0 0 0 0 0 0 0 0 0 
0 0 0 0 0 0 0 0 0 
0 0 0 0 0 0 5.81451e-10 0 0 
0 0 0 1.56074e-10 0 0 0 0 0 
2.72157e-08 0 0 0 0 0 0 0 0 
0 0 0 0 0 0 0 0 0 
0 0 0 0 0 0 0 0 0 
0 0 0 0 0 0 0 0 0 
8.01194e-10 0 0 0 0 0 0 0 0 
0 0 0 0 0 0 0 0 0 
0 0 0 0 0 0 0 0 0 
0 0 0 0 0 0 0 0 0 
0 0 0 0 0 0 0 0 0 
0 0 3.7703e-10 0 0 0 0 0 0 
0 4.95902e-10 0 0 0 0 0 9.14014e-10 0 
0 0 0 0 0 0 0 0 0 
0 0 0 6.01612e-11 0 0 0 0 0 
0 0 0 0 0 0 0 0 0 
0 0 7.33007e-10 6.1978e-10 0 0 0 0 0 
0 1.10389e-09 0 0 0 0 0 0 0 
0 0 1.39462e-08 0 0 0 0 0 0 
0 0 0 0 0 0 0 0 0 
0 0 0 0 1.15014e-09 0 0 0 0 
0 0 0 0 0 0 0 0 0 
0 0 1.20672e-09 0 0 1.37158e-10 0 0 0 
0 0 0 0 0 0 0 0 0 
0 0 0 0 0 0 0 0 0 
0 0 0 0 0 0 0 0 0 
0 0 0 0 0 0 0 6.27402e-10 0 
0 0 0 0 0 0 0 0 0 
0 0 1.07113e-08 0 0 0 0 0 0 
0 0 0 0 0 0 0 0 0 
0 0 0 0 0 0 0 2.84437e-10 0 
0 0 0 0 0 0 0 0 0 
0 0 0 0 0 0 0 0 0 
0 0 0 0 0 2.83549e-10 0 0 0 
0 0 0 0 0 0 7.77824e-10 3.18447e-10 0 
0 0 0 0 0 0 1.77225e-08 0 0 
0 0 0 9.49746e-08 0 0 5.79993e-10 0 0 
0 0 0 0 0 0 0 0 0 
0 0 0 0 0 0 0 0 0 
0 0 0 0 0 0 0 0 0 
0 0 0 0 0 0 0 0 0 
0 0 0 0 0 0 0 0 0 
0 0 0 0 0 0 0 0 0 
0 0 0 0 0 0 0 0 0 
0 0 0 0 0 0 0 0 0 
0 0 0 0 0 0 0 0 0 
0 0 5.81879e-10 0 0 0 0 0 0 
0 0 0 0 0 0 0 0 0 
0 0 0 0 0 0 0 1.32562e-09 0 
0 0 0 0 0 0 0 0 0 
0 0 0 0 0 0 0 0 0 
0 0 0 0 0 0 0 0 0 
0 0 0 0 0 0 0 0 0 
1.2339e-09 0 0 0 0 0 0 0 0 
0 0 0 0 0 0 0 0 0 
0 0 0 0 0 0 0 0 0 
0 0 1.28009e-09 0 0 0 0 0 0 
0 0 0 0 0 0 0 0 0 
0 0 0 0 0 0 0 2.26057e-10 2.45485e-10 
0 0 0 0 0 0 0 0 0 
0 0 0 0 0 0 0 0 0 
0 0 0 0 0 0 0 0 0 
0 0 0 0 0 0 0 0 0 
0 0 0 0 0 0 0 0 0 
0 0 0 0 0 0 0 6.10417e-10 0 
2.9277e-10 9.3333e-10 0 0 0 7.20238e-10 0 0 0 
0 0 1.0457e-09 0 0 0 0 0 0 
0 0 0 0 0 0 0 0 0 
0 0 0 1.19293e-09 0 0 0 0 0 
0 0 0 0 0 0 1.78703e-09 0 8.01926e-10 
0 0 0 0 0 0 0 0 0 
0 0 6.49841e-10 0 0 0 0 0 0 
0 0 0 0 0 0 0 0 8.49621e-10 
0 0 0 0 0 0 0 0 0 
0 0 0 0 0 0 0 0 0 
7.34079e-10 0 0 0 0 0 0 6.81622e-07 3.24007e-07 
0 0 0 0 0 0 0 0 0 
0 0 0 0 0 0 0 0 0 
0 0 0 0 2.10196e-10 0 0 0 0 
0 0 0 0 0 0 0 0 0 
0 0 0 0 0 0 0 0 0 
0 0 0 1.19366e-07 0 0 0 0 0 
0 2.1652e-10 0 0 0 0 0 0 0 
0 0 0 0 0 0 0 0 0 
0 0 0 0 0 0 0 5.39718e-10 0 
0 0 0 8.278e-10 0 0 0 0 0 
0 0 0 7.3965e-10 0 0 0 0 0 
0 0 0 0 0 0 0 0 2.71411e-10 
0 0 0 0 0 0 0 0 0 
0 0 0 0 0 0 7.92987e-10 0 0 
0 0 0 0 0 0 0 0 0 
0 0 0 0 0 1.17864e-09 0 0 0 
0 0 1.17724e-09 0 0 0 1.08529e-09 0 0 
0 0 0 0 0 0 0 0 0 
0 1.20584e-09 6.58662e-10 0 9.90735e-10 0 0 0 0 
0 0 0 0 0 6.37861e-10 0 0 0 
0 0 0 0 0 0 0 0 0 
0 0 0 8.31296e-10 0 0 0 0 0 
0 0 0 0 0 0 0 0 0 
0 0 0 0 0 0 0 0 0 
0 0 0 0 0 0 0 0 0 
0 0 0 0 0 0 0 0 0 
0 0 0 0 0 0 0 0 0 
0 0 0 0 0 0 0 0 0 
0 0 0 0 0 0 0 0 0 
0 0 0 1.39018e-10 0 0 0 0 0 
0 0 0 0 0 0 0 0 0 
0 0 0 0 0 8.67782e-10 0 0 0 
0 0 0 0 0 0 0 0 0 
0 0 0 0 0 0 0 0 0 
0 0 0 0 0 0 0 0 0 
0 2.64754e-10 0 0 0 0 0 0 0 
0 0 0 0 4.8005e-10 0 0 0 0 
0 0 0 0 0 0 0 0 0 
0 0 0 0 0 0 0 0 0 
0 0 3.18465e-10 0 7.46825e-10 0 0 0 0 
0 0 0 0 0 0 0 0 0 
0 0 0 0 0 0 0 0 0 
0 0 0 1.30614e-09 0 0 0 0 0 
0 0 0 0 0 0 0 0 0 
0 0 0 0 0 0 0 1.1372e-09 0 
0 0 0 0 0 0 0 0 0 
0 0 0 0 0 0 0 0 0 
0 0 0 0 0 0 0 1.05168e-09 0 
0 0 0 0 4.49241e-10 0 0 0 0 
0 0 0 0 0 0 0 2.15515e-09 0 
3.57716e-10 0 0 0 0 0 0 0 0 
0 0 0 0 0 0 0 0 0 
0 0 0 0 0 0 0 0 1.04269e-09 
0 0 0 0 0 0 0 0 0 
0 0 0 0 0 3.31671e-10 0 0 0 
0 0 0 0 0 0 0 0 0 
0 0 0 0 9.19236e-10 0 0 0 5.1714e-10 
0 0 0 0 0 0 0 0 0 
0 0 0 0 0 0 0 0 0 
0 0 0 0 0 0 0 0 0 
0 0 0 0 0 0 0 0 0 
0 2.2337e-08 0 1.2266e-09 0 0 6.99675e-10 0 0 
0 0 0 0 0 0 0 0 0 
0 0 0 0 0 0 0 0 0 
0 0 0 9.86912e-10 0 0 0 0 0 
0 0 0 0 0 0 0 0 0 
0 5.08393e-12 0 0 0 0 0 3.58819e-10 0 
0 0 0 0 0 1.7674e-08 0 0 0 
0 0 0 0 0 0 0 0 0 
0 0 0 9.94756e-10 0 0 0 2.50951e-10 1.18316e-08 
0 0 0 0 0 0 0 0 0 
0 0 0 0 0 0 0 0 0 
0 0 0 0 0 0 0 0 0 
0 0 0 0 0 0 0 0 0 
0 0 0 0 0 0 0 0 0 
0 0 0 0 0 0 0 0 0 
0 0 0 0 0 0 0 0 0 
1.12048e-09 0 0 0 0 0 0 0 0 
0 0 0 0 0 0 0 0 0 
0 0 0 0 0 0 0 0 0 
0 7.39334e-10 0 0 0 0 0 0 0 
0 0 0 0 0 0 0 0 0 
0 0 0 0 0 0 0 0 0 
0 0 0 0 0 0 0 0 0 
0 0 0 0 0 0 0 0 5.27223e-10 
0 0 0 0 0 0 0 0 0 
0 0 0 0 0 1.24949e-09 0 0 0 
0 0 0 0 0 0 0 9.42137e-10 0 
0 0 0 0 0 0 0 0 0 
0 0 7.0985e-10 0 0 0 0 0 0 
0 0 0 0 0 0 0 0 0 
0 0 0 0 0 0 0 0 0 
0 0 0 0 0 0 0 0 0 
0 0 0 0 0 0 0 0 0 
0 0 0 0 0 0 0 1.00448e-09 3.92117e-10 
0 0 0 5.085e-10 0 0 0 0 0 
0 0 0 0 0 0 0 0 0 
0 0 0 0 0 0 0 0 9.62771e-10 
0 0 4.57687e-10 1.06688e-09 0 1.43536e-09 0 0 0 
0 0 0 0 0 0 0 0 0 
0 0 8.18886e-10 0 0 0 0 0 0 
0 0 0 0 0 0 0 0 0 
0 0 0 0 0 0 0 0 0 
0 0 0 0 0 0 0 0 0 
0 0 0 0 0 0 0 0 0 
0 0 0 0 0 0 0 0 0 
7.56426e-10 0 0 0 0 0 0 0 0 
8.64388e-10 0 0 0 1.10816e-10 0 0 0 0 
0 0 0 0 0 0 0 0 0 
0 0 0 0 0 0 0 0 0 
0 0 0 0 0 0 0 0 0 
0 0 0 0 0 0 0 0 0 
5.02398e-10 0 0 0 0 1.18101e-09 0 0 0 
0 0 0 0 0 0 9.15581e-10 6.98265e-10 0 
0 0 0 0 0 0 0 0 0 
0 7.52861e-10 0 0 0 0 0 0 0 
0 4.03741e-10 0 0 0 0 0 0 0 
0 1.11555e-09 0 0 0 0 0 0 0 
0 0 0 0 0 0 0 0 0 
0 0 0 0 0 0 0 1.34355e-10 0 
1.01105e-09 0 0 0 0 0 0 0 0 
0 5.92266e-10 0 0 0 0 0 0 0 
0 0 0 0 0 0 0 0 0 
0 0 0 8.81951e-10 0 0 0 0 0 
0 0 0 0 0 0 0 0 0 
0 0 0 0 0 0 0 0 0 
1.70474e-09 0 0 0 0 0 0 0 0 
0 0 0 0 0 0 0 0 0 
0 0 0 0 0 0 0 0 0 
1.16046e-09 4.86231e-10 0 0 0 0 0 0 0 
0 0 0 0 0 0 0 0 0 
0 0 0 3.35029e-08 0 0 0 0 1.30394e-08 
0 0 0 0 0 0 0 0 0 
1.92118e-09 0 0 0 0 0 2.55881e-10 0 0 
0 0 0 0 0 0 0 0 9.5423e-10 
0 0 0 0 0 0 0 0 0 
0 0 0 0 0 0 0 0 0 
0 0 0 0 0 0 0 0 0 
0 0 0 0 0 0 0 0 0 
0 0 0 0 0 0 0 0 1.08768e-09 
1.10501e-09 0 0 0 0 0 0 0 0 
0 0 0 0 0 0 0 0 0 
0 1.16446e-09 0 2.76064e-09 1.86222e-08 0 0 0 0 
0 0 0 9.87029e-10 0 0 0 0 0 
0 0 0 0 0 0 0 0 8.78394e-10 
0 0 1.15022e-08 0 0 0 0 0 0 
0 0 0 0 0 0 0 0 0 
0 0 0 0 0 5.39856e-10 0 0 0 
0 0 0 0 0 0 0 0 2.35345e-08 
0 0 0 0 0 0 0 0 0 
0 0 0 0 7.13285e-10 0 0 0 0 
0 0 0 0 0 0 0 0 0 
0 0 0 0 0 0 0 0 0 
0 0 0 7.74712e-10 0 0 0 6.28662e-10 0 
0 0 0 0 0 0 0 0 0 
0 0 0 0 0 0 0 2.6229e-10 0 
0 0 0 0 0 5.55241e-10 0 0 0 
0 0 0 0 0 0 0 0 0 
0 1.40713e-09 0 0 0 0 0 0 0 
0 0 0 0 0 0 0 0 0 
0 0 0 0 0 0 0 0 0 
0 0 0 0 0 0 0 0 0 
0 0 0 6.37424e-10 0 0 0 0 0 
0 0 0 3.65189e-09 0 0 0 3.17044e-10 0 
0 0 0 0 0 0 0 0 0 
0 0 0 0 0 0 0 1.71582e-08 0 
0 0 0 0 0 0 0 0 0 
0 0 0 0 0 0 2.70001e-10 0 0 
0 0 0 0 0 0 0 0 0 
0 0 0 0 0 0 7.65208e-10 0 0 
0 0 0 0 0 0 0 0 0 
0 0 0 7.98003e-10 0 0 0 0 0 
0 0 0 0 0 0 0 0 0 
0 0 0 0 0 0 0 7.77465e-10 0 
0 0 0 0 0 0 0 0 0 
0 8.3249e-10 0 0 0 0 0 0 0 
0 0 6.14557e-10 5.96966e-10 0 0 0 0 0 
0 0 4.66565e-10 0 2.89332e-08 0 0 0 0 
0 0 0 0 0 0 0 0 0 
0 0 0 0 0 0 0 0 0 
0 0 0 0 0 0 0 5.72063e-10 0 
0 0 0 2.26823e-09 0 0 0 0 0 
0 0 0 0 0 0 0 6.45144e-10 0 
0 0 1.05221e-10 0 0 0 0 0 0 
0 0 2.40135e-09 0 0 0 1.26644e-10 0 2.1413e-08 
0 0 0 0 4.83631e-10 0 0 0 0 
0 0 0 0 0 0 0 0 0 
7.39693e-10 0 0 0 0 0 0 0 0 
0 0 0 0 0 0 0 0 0 
0 0 0 0 0 0 0 0 0 
7.32506e-10 0 0 0 7.73312e-10 0 0 0 0 
0 4.36462e-10 0 0 0 0 0 0 0 
0 0 0 0 0 0 0 
feature_3 1 2500 float
0 0 0 0 0 0 0 0 0 
0 0 0 0 0 3.09221e-10 0 0 0 
0 0 0 0 0 0 0 0 5.48283e-10 
0 0 0 0 0 0 0 0 0 
0 0 0 0 0 0 0 0 0 
0 0 0 0 0 9.98078e-10 0 0 0 
0 0 0 0 0 0 0 0 0 
1.20713e-09 0 0 0 0 0 0 0 0 
0 0 0 0 0 0 0 0 0 
0 0 0 0 0 0 0 0 0 
0 0 0 0 0 0 0 0 0 
0 0 0 0 0 0 0 0 0 
0 0 0 0 0 0 0 9.59908e-10 0 
0 0 0 1.15608e-09 0 0 1.00083e-09 0 0 
0 0 0 0 0 0 0 0 0 
0 0 0 1.0711e-09 0 0 0 0 0 
0 0 0 0 0 0 0 0 0 
0 0 0 0 0 0 0 0 0 
0 0 0 0 8.87005e-09 0 0 0 3.17355e-10 
0 0 0 0 0 0 0 0 0 
0 0 0 0 0 0 0 0 0 
0 0 0 0 0 0 0 0 0 
0 7.24896e-10 0 0 0 0 0 0 0 
0 0 0 0 0 0 0 0 0 
0 0 0 0 0 0 0 0 0 
0 0 0 0 0 0 0 0 0 
4.45866e-10 0 0 0 0 0 7.7427e-11 0 4.16776e-10 
7.08141e-10 0 0 0 0 0 4.49916e-10 0 0 
0 0 4.51589e-10 0 0 0 0 0 0 
0 0 0 0 0 0 0 0 0 
0 0 0 0 0 0 0 0 1.18984e-09 
0 0 0 0 0 0 0 0 0 
0 0 0 0 0 0 0 0 0 
0 0 0 0 0 0 0 0 0 
0 0 0 0 0 0 0 0 0 
0 0 0 0 0 0 0 0 0 
0 0 0 0 5.72818e-10 0 0 0 0 
0 0 0 0 0 0 0 0 0 
0 0 0 0 0 0 0 0 0 
0 0 0 0 7.68686e-10 0 0 0 0 
0 0 0 0 0 0 0 0 0 
0 0 0 0 0 0 0 0 0 
0 0 0 0 0 0 0 0 0 
0 0 0 0 0 0 0 0 0 
0 0 0 1.11247e-09 0 0 0 0 5.7825e-10 
0 0 0 0 0 0 0 0 0 
0 0 0 0 0 0 0 0 0 
4.56104e-10 0 0 0 0 0 0 0 0 
0 0 2.89337e-10 0 0 0 0 0 0 
0 0 0 0 0 0 0 0 0 
5.78641e-10 0 0 0 0 0 0 0 0 
0 0 0 0 0 0 0 0 0 
0 0 0 0 0 0 0 0 3.02673e-10 
0 0 0 0 0 0 0 0 0 
0 0 0 0 0 0 0 0 0 
0 0 0 0 0 0 0 0 0 
0 0 0 0 0 0 0 0 0 
0 0 0 0 0 0 0 0 3.11484e-11 
0 0 0 0 0 0 0 0 0 
0 0 0 0 0 0 0 0 0 
0 0 0 0 1.37476e-09 0 0 7.03043e-10 0 
0 0 0 0 0 0 0 0 0 
0 0 0 0 0 0 0 0 0 
0 0 0 0 0 0 0 0 0 
0 0 0 0 0 0 0 0 0 
0 0 0 0 0 0 0 0 0 
0 0 0 0 0 0 0 0 0 
0 0 0 0 0 0 0 0 0 
0 0 0 0 0 0 1.91063e-10 0 0 
0 0 0 0 0 0 0 0 0 
0 0 0 0 0 0 0 0 0 
0 0 0 0 0 0 0 0 0 
0 0 0 9.16426e-10 0 0 0 0 0 
0 0 0 0 0 0 0 0 0 
8.32024e-10 0 0 0 0 0 0 0 0 
0 0 0 0 0 0 0 0 0 
0 1.28431e-11 0 0 0 0 1.13939e-09 0 0 
0 0 0 0 0 0 0 1.1723e-09 0 
0 0 0 0 0 0 0 0 0 
1.20266e-09 0 0 0 0 0 0 0 0 
0 0 0 0 0 4.45795e-10 0 0 0 
0 0 0 0 0 0 4.08161e-10 0 0 
0 0 0 0 4.13465e-10 0 0 0 0 
0 0 0 0 0 0 0 0 0 
0 0 0 0 0 0 0 0 0 
0 0 0 1.22862e-09 0 0 0 0 0 
0 0 0 0 0 0 0 0 0 
0 0 0 0 0 0 0 0 0 
8.30621e-10 0 0 0 0 0 0 0 0 
0 0 0 0 0 0 0 0 0 
0 0 0 0 0 0 0 0 0 
0 0 0 0 0 0 0 0 0 
0 0 0 0 0 0 0 0 0 
0 0 0 0 0 0 0 0 5.55186e-10 
0 1.13981e-09 0 0 0 0 0 0 5.53801e-10 
0 0 0 1.85736e-11 0 0 2.43194e-10 0 0 
0 0 0 0 0 0 0 0 0 
0 0 0 0 0 0 0 0 0 
0 0 0 0 1.0232e-07 0 0 0 0 
0 0 0 0 0 0 0 0 0 
0 0 0 0 0 0 0 0 0 
0 0 0 0 0 0 0 0 0 
0 0 8.3018e-10 0 0 0 6.19018e-10 0 0 
0 0 0 0 0 0 0 0 0 
0 0 0 0 0 0 0 0 0 
0 1.07325e-09 0 3.82432e-11 0 0 0 0 0 
4.9678e-10 9.13474e-11 0 0 0 0 0 0 0 
0 0 0 0 0 0 0 0 0 
0 0 0 0 0 4.129e-10 0 0 0 
0 0 0 0 0 0 0 0 0 
0 0 0 0 0 0 0 0 0 
1.1067e-09 0 0 0 0 7.98625e-10 0 0 0 
0 0 0 0 0 0 0 0 0 
2.61789e-10 0 0 0 0 0 0 0 0 
0 0 0 0 0 0 0 0 0 
0 0 0 0 0 0 0 0 0 
0 0 0 0 0 0 0 0 0 
7.82549e-10 0 0 0 0 0 0 0 0 
0 0 0 0 0 0 0 0 0 
0 0 0 0 0 0 0 0 0 
0 0 0 0 0 0 0 0 0 
0 0 0 0 0 0 1.0303e-09 1.01575e-09 0 
0 0 2.9707e-08 0 0 0 0 0 0 
0 0 0 0 0 0 3.97119e-10 0 0 
0 0 0 0 2.50046e-09 0 0 0 0 
0 0 5.64961e-09 0 0 0 0 0 0 
0 0 0 0 0 0 0 0 0 
0 0 0 0 0 0 0 0 1.18061e-09 
0 6.71768e-10 0 0 0 0 0 0 0 
0 0 0 0 0 0 0 0 8.32726e-10 
0 0 0 0 1.30687e-10 0 0 0 0 
0 0 0 0 0 0 0 0 0 
0 0 0 0 0 0 0 0 0 
0 0 0 0 0 0 0 0 0 
0 0 0 3.56131e-10 0 0 0 0 0 
0 0 0 0 0 0 0 0 0 
0 0 0 0 0 0 0 0 0 
0 0 0 0 0 0 0 0 0 
0 0 0 0 0 0 0 0 8.03475e-10 
0 0 0 0 0 0 0 0 0 
0 0 0 0 0 0 0 0 0 
0 0 0 0 0 0 0 0 0 
2.04167e-10 0 0 0 0 0 0 0 0 
0 0 0 0 0 0 0 0 0 
0 0 0 0 1.16525e-09 2.00948e-08 0 0 2.22064e-08 
0 0 0 0 0 0 0 6.76089e-10 0 
0 1.63788e-08 0 0 0 0 0 0 0 
0 9.21375e-10 0 0 0 0 0 0 0 
0 0 0 0 0 0 0 0 0 
0 0 0 0 0 0 0 0 0 
0 0 0 0 0 0 0 0 5.73049e-10 
0 0 0 0 0 6.09518e-10 0 0 0 
0 0 0 0 0 0 0 0 0 
0 0 0 0 0 2.99332e-10 0 0 0 
0 0 0 0 0 0 0 0 0 
0 9.81487e-10 0 0 0 0 0 0 0 
0 0 0 0 0 0 0 0 0 
0 0 0 0 0 0 0 0 1.33355e-10 
0 0 0 0 0 0 0 0 0 
0 0 0 0 0 0 0 0 0 
0 0 0 0 0 0 0 3.10454e-10 0 
7.04645e-11 0 0 0 0 0 0 0 0 
0 0 6.44444e-10 0 0 0 2.11916e-10 0 0 
0 0 0 0 0 0 0 0 0 
0 0 0 0 0 0 0 0 0 
0 0 0 0 0 0 0 0 0 
0 0 0 0 0 0 0 0 0 
0 0 0 0 0 0 0 1.01148e-09 0 
0 0 0 0 0 0 0 0 0 
0 0 0 0 0 0 0 0 0 
0 0 0 0 0 0 0 0 0 
0 0 0 0 0 0 0 0 0 
0 1.50788e-10 0 0 0 0 0 0 0 
0 0 0 1.03114e-09 0 0 0 0 0 
0 0 0 0 0 0 0 0 0 
0 0 0 0 0 0 0 0 0 
0 0 0 0 0 0 0 0 0 
0 0 0 0 0 0 0 0 0 
0 0 0 0 4.46054e-10 0 0 0 0 
0 8.95e-11 0 0 0 0 0 0 0 
0 0 0 0 4.37013e-10 1.00724e-09 0 0 0 
0 2.64816e-10 0 0 0 0 0 3.69084e-10 0 
0 0 0 0 0 3.45281e-10 0 0 0 
0 0 0 0 0 0 0 0 0 
0 0 0 0 0 0 0 0 0 
6.29708e-10 0 7.76733e-10 0 0 0 0 0 0 
0 3.6166e-10 1.08777e-10 0 0 0 0 0 0 
0 0 0 0 0 0 0 0 0 
0 0 0 6.69999e-10 0 2.6299e-11 0 0 0 
0 0 0 0 0 0 0 0 0 
0 0 0 0 0 0 0 3.52848e-10 0 
0 0 0 0 0 0 0 0 0 
0 0 0 3.72676e-10 0 0 0 0 0 
0 0 0 0 0 0 0 0 0 
0 0 0 0 0 0 0 0 0 
0 0 0 0 1.50259e-09 0 0 0 0 
0 0 0 0 0 0 0 1.02339e-09 0 
0 0 9.898e-10 0 0 0 0 0 0 
2.80428e-08 0 0 0 0 0 0 3.38225e-10 0 
0 0 0 9.73952e-10 0 0 0 0 0 
1.50335e-08 0 0 0 0 0 0 0 0 
0 0 0 0 0 0 0 0 0 
0 0 0 2.86578e-10 0 0 0 0 9.34943e-10 
0 0 0 0 0 0 0 0 0 
0 0 0 0 0 0 0 0 0 
0 0 0 0 0 0 0 0 0 
0 0 0 0 0 5.25102e-10 0 0 0 
0 0 0 0 0 0 0 0 0 
0 0 0 3.17286e-10 0 0 0 0 0 
0 0 0 0 0 0 0 0 0 
0 0 0 0 0 0 0 0 0 
0 0 0 0 0 0 0 0 0 
0 0 0 0 0 0 0 0 0 
0 0 0 0 0 0 0 0 0 
0 0 0 0 0 0 0 0 0 
0 0 0 0 0 9.89647e-10 0 0 0 
0 0 0 0 0 0 0 0 0 
0 0 0 0 0 4.36877e-10 0 0 0 
0 0 0 0 0 4.98428e-10 0 0 0 
0 0 0 0 0 0 0 0 0 
0 0 0 0 0 0 0 0 0 
0 0 0 0 0 0 0 1.09969e-09 0 
0 0 0 7.08443e-10 0 0 0 0 0 
0 0 0 0 0 0 0 0 1.34555e-10 
0 0 0 0 0 0 0 0 0 
0 0 0 0 0 0 0 0 1.39455e-09 
0 0 0 0 0 0 0 0 0 
0 0 3.04489e-10 0 0 0 0 0 0 
0 0 0 0 0 0 0 0 0 
3.31061e-10 0 0 0 0 0 0 0 0 
0 8.36497e-10 0 0 0 5.07042e-10 0 0 0 
0 0 0 0 0 0 0 0 0 
6.56684e-10 0 0 0 0 8.22222e-10 0 0 0 
0 0 0 0 0 0 0 0 0 
0 0 0 0 0 0 0 0 0 
0 0 0 0 0 0 0 0 0 
0 0 0 0 0 0 0 0 0 
0 0 0 0 0 0 0 0 0 
0 0 0 0 0 0 0 0 0 
0 1.20954e-09 0 0 0 0 0 0 0 
0 0 0 0 0 0 0 8.85553e-10 0 
0 3.25759e-10 0 0 0 0 0 0 7.83505e-10 
0 0 0 0 0 0 0 0 0 
0 0 0 0 0 0 0 0 0 
0 0 0 0 0 0 0 0 0 
0 0 0 0 0 0 0 0 8.44242e-10 
0 0 0 0 0 0 0 0 0 
0 0 8.82626e-10 0 0 0 0 0 0 
0 0 0 0 0 0 0 0 0 
0 0 0 0 0 0 0 0 0 
1.32667e-08 0 0 0 0 0 0 0 0 
0 0 0 0 0 0 0 0 0 
0 0 0 0 0 0 0 0 0 
0 0 0 0 0 0 0 1.77501e-10 0 
0 0 0 0 0 0 0 0 0 
0 0 0 0 0 0 0 0 0 
0 0 0 0 0 0 0 0 0 
0 0 1.13724e-09 0 0 0 0 0 0 
0 0 0 0 0 0 0 0 0 
0 0 0 0 0 0 0 0 0 
0 0 0 0 0 0 0 0 0 
0 0 0 0 0 0 0 0 0 
0 0 0 0 0 0 0 0 6.40497e-10 
0 0 8.33865e-10 0 0 0 0 0 0 
0 0 0 0 0 0 0 0 0 
0 0 0 0 0 0 0 0 0 
0 0 0 0 0 0 0 0 0 
0 0 0 0 0 0 0 0 0 
0 0 0 0 0 0 0 0 0 
0 0 0 0 0 0 0 0 0 
7.52319e-10 0 0 0 0 0 0 0 0 
0 0 7.75252e-10 0 0 0 0 0 0 
0 9.10852e-10 0 0 0 0 0 0 0 
0 0 0 0 0 0 0 0 0 
0 0 0 0 0 0 0 1.07149e-09 0 
0 2.14865e-08 7.83199e-10 0 0 5.26462e-10 0 0 0 
0 0 0 0 0 0 0 0 0 
0 0 0 0 0 0 0 
feature_4 1 2500 float
0 0 0 0 0 0 0 0 0 
0 1.03617e-09 0 1.13628e-09 0 0 0 0 0 
0 0 0 7.78108e-10 0 0 9.17307e-10 0 0 
0 0 0 0 0 0 0 0 0 
0 0 0 0 0 0 0 0 0 
0 0 0 0 0 0 3.70132e-10 0 0 
0 0 0 0 0 0 0 0 0 
0 0 0 0 0 0 0 0 0 
0 0 0 1.56076e-10 0 0 0 0 0 
0 0 0 0 0 0 0 0 0 
0 0 0 0 0 0 0 0 0 
0 0 1.20934e-09 0 0 0 0 0 0 
0 0 0 0 0 0 0 0 0 
0 0 0 0 0 0 0 0 0 
0 4.19657e-10 0 0 0 0 0 0 7.41561e-10 
0 0 0 0 0 0 0 0 0 
0 8.07727e-10 0 0 0 1.0254e-09 9.19687e-10 0 0 
0 0 0 0 0 0 0 0 0 
0 0 0 0 0 0 0 0 0 
0 0 0 0 0 0 0 0 0 
0 0 0 0 0 3.63334e-10 0 0 0 
0 0 0 0 0 0 0 0 3.20199e-10 
0 0 0 0 0 0 0 0 0 
0 0 0 0 0 0 0 0 0 
0 0 0 0 0 0 0 0 0 
0 0 0 0 0 0 0 0 0 
0 0 0 0 0 5.9301e-11 0 0 0 
6.05922e-10 0 0 0 0 0 0 0 0 
0 0 0 0 0 0 0 0 0 
0 0 0 0 0 0 0 0 0 
0 0 0 0 0 0 0 0 0 
0 0 9.14731e-10 0 0 2.96396e-10 0 0 0 
0 0 0 0 0 0 0 0 0 
0 0 0 0 0 0 0 0 0 
0 0 0 0 0 0 0 0 0 
0 0 0 0 0 0 0 7.41288e-10 0 
0 0 0 0 0 0 0 0 0 
0 0 1.31159e-10 0 0 0 0 0 0 
0 0 8.38483e-10 0 0 0 0 0 0 
0 0 0 0 0 0 0 0 0 
0 0 0 0 0 0 0 0 0 
0 0 0 0 0 0 0 0 0 
0 0 0 0 0 0 0 0 0 
0 4.15183e-10 0 0 0 0 0 0 0 
0 0 0 0 0 0 7.76879e-10 0 0 
0 0 0 0 0 0 0 0 0 
0 0 0 0 0 0 0 0 0 
0 0 0 0 0 0 0 0 8.07148e-10 
0 0 0 0 1.22192e-09 0 0 0 0 
0 0 0 0 0 0 0 0 0 
0 0 0 0 0 0 0 0 0 
0 0 0 5.83793e-10 0 0 0 0 0 
0 0 0 0 0 0 0 6.04352e-11 0 
0 0 0 7.83071e-10 0 0 0 0 0 
0 0 0 0 0 0 0 0 0 
0 0 0 0 0 0 0 0 0 
0 0 0 0 0 2.5463e-10 0 0 0 
0 0 0 0 0 0 0 0 0 
0 7.98487e-10 0 0 0 0 2.3535e-10 0 0 
0 0 0 5.58749e-10 0 0 0 0 0 
0 0 0 0 0 0 0 0 0 
0 0 0 0 0 0 0 0 0 
0 0 0 0 0 0 8.50601e-10 0 0 
0 0 0 0 0 0 0 0 0 
0 0 0 0 0 0 0 0 0 
0 0 0 0 0 0 0 0 0 
0 0 4.85162e-10 0 0 0 0 0 0 
0 0 5.85228e-10 0 0 0 0 0 0 
0 0 0 0 0 0 0 0 0 
0 0 0 0 0 0 0 0 0 
0 0 8.95206e-10 0 0 0 0 0 0 
0 0 0 0 0 0 0 0 0 
0 0 0 0 0 0 0 0 0 
0 0 0 0 0 0 0 0 0 
0 0 0 0 0 0 0 0 0 
0 0 0 0 0 0 0 0 0 
0 0 0 0 0 0 0 0 0 
0 0 0 0 0 0 0 0 0 
0 0 0 0 0 0 0 0 0 
0 0 0 0 0 0 0 0 0 
6.84723e-11 0 0 0 0 0 0 0 0 
0 0 0 0 0 0 0 7.36783e-10 4.45354e-10 
0 0 0 0 0 0 0 0 0 
0 0 0 0 0 0 0 0 0 
0 0 0 0 0 0 0 0 0 
0 0 0 0 0 0 0 0 0 
0 0 0 0 0 0 0 0 0 
0 0 0 0 0 0 0 0 0 
0 0 0 0 0 0 0 0 0 
0 0 0 0 0 0 0 0 0 
0 0 2.41972e-10 8.84196e-10 0 0 0 0 0 
0 0 0 0 0 0 0 0 0 
0 0 0 0 0 0 0 0 0 
0 0 0 0 0 0 0 0 0 
0 0 0 0 0 0 0 0 0 
0 0 0 0 0 0 0 0 0 
0 0 0 0 0 0 0 0 0 
0 0 0 0 0 0 0 0 0 
3.32392e-10 0 0 0 0 0 0 0 1.0707e-09 
0 0 0 0 0 0 0 0 0 
0 0 0 0 0 0 1.04287e-09 0 0 
0 0 0 0 0 0 0 0 0 
0 3.82272e-10 0 0 0 0 0 0 0 
1.08398e-09 0 0 0 0 0 0 0 0 
0 0 0 0 0 0 0 0 0 
0 0 0 0 0 0 0 0 0 
0 0 0 0 0 0 0 0 0 
0 0 6.46466e-10 0 0 0 0 0 1.00438e-09 
0 0 0 0 0 0 0 0 0 
0 0 4.95159e-10 0 0 0 0 0 0 
0 0 0 0 0 0 0 0 0 
0 0 0 9.08841e-10 0 0 0 0 0 
0 0 0 0 0 0 0 0 0 
0 0 0 0 0 0 0 0 0 
0 0 0 0 0 0 0 0 0 
0 0 0 0 0 0 0 0 0 
0 0 0 0 0 0 0 0 0 
0 0 0 0 0 0 0 0 0 
0 0 0 0 0 0 0 0 0 
0 0 0 0 0 0 1.05499e-09 1.06744e-09 0 
0 0 0 0 0 0 0 0 0 
0 0 0 0 0 0 0 7.47271e-10 0 
0 0 0 0 0 0 0 0 0 
0 0 0 0 0 0 0 0 0 
0 0 0 0 0 0 0 0 0 
0 0 0 0 3.56829e-10 0 0 0 0 
0 0 0 0 0 0 0 0 0 
0 0 0 0 0 0 0 0 0 
0 2.72196e-10 0 0 0 0 0 0 0 
0 0 0 0 0 0 0 0 0 
0 0 0 0 0 0 0 0 0 
0 0 0 0 0 0 0 0 0 
0 0 0 1.56884e-10 0 0 0 0 0 
0 0 0 0 0 0 0 0 0 
0 0 0 0 0 0 0 1.63787e-10 0 
0 0 0 0 0 0 0 6.9172e-10 0 
0 0 0 0 0 0 0 0 0 
0 0 0 0 0 0 0 0 0 
0 0 0 0 0 0 0 0 0 
0 0 0 0 0 0 0 0 0 
0 1.42655e-09 0 0 0 3.69447e-10 0 0 0 
0 0 0 0 0 0 0 0 0 
0 0 0 0 0 0 0 0 0 
0 7.55374e-10 0 0 0 0 0 7.31156e-10 0 
0 0 0 0 0 0 0 0 0 
0 0 0 0 0 0 0 0 0 
0 0 0 0 0 0 0 0 0 
0 0 0 0 0 0 5.81478e-10 0 0 
0 0 0 0 0 0 0 0 0 
0 0 0 0 0 0 0 0 1.00636e-09 
0 0 0 0 0 0 0 0 0 
0 0 0 1.2841e-09 0 0 0 0 0 
0 0 0 0 0 0 0 0 0 
0 0 0 0 0 0 0 0 0 
0 0 0 0 0 0 9.69475e-10 0 0 
0 0 0 0 0 0 0 2.57412e-10 0 
0 0 0 0 0 0 0 0 0 
0 0 0 1.08954e-09 3.00904e-10 0 0 0 0 
0 0 0 0 0 0 0 0 0 
0 0 0 0 0 0 0 0 0 
0 0 0 0 0 0 0 0 0 
0 0 0 0 0 0 0 0 0 
0 5.54545e-10 0 0 0 0 0 0 0 
0 0 0 0 0 0 0 0 0 
0 0 0 0 0 0 0 0 0 
0 0 0 0 0 0 0 0 0 
0 0 0 0 0 0 0 0 0 
0 0 0 0 0 0 0 0 0 
0 0 0 0 0 0 0 0 0 
0 0 0 0 0 0 0 0 1.68031e-10 
0 0 0 0 0 0 0 0 0 
0 8.45098e-10 0 0 0 0 6.86118e-10 0 0 
0 0 0 0 0 0 0 0 0 
0 0 0 0 0 0 0 0 0 
0 0 0 0 0 0 0 5.21757e-10 0 
0 1.1173e-09 0 0 0 0 9.88983e-10 0 0 
9.17211e-10 0 0 0 0 0 0 5.87137e-10 0 
0 0 0 0 0 0 0 0 0 
0 0 0 0 0 0 0 0 0 
0 0 0 0 0 0 0 0 0 
0 3.27418e-10 0 0 0 0 4.89316e-10 0 0 
0 0 0 0 0 0 0 0 0 
0 0 0 0 0 0 0 0 0 
0 0 0 0 0 0 0 0 0 
0 0 0 0 0 0 0 0 0 
0 0 0 0 0 0 0 0 0 
5.90015e-10 0 0 0 0 0 0 0 0 
0 0 0 0 0 0 0 0 0 
0 0 0 0 0 0 0 7.7252e-10 0 
0 0 0 0 0 0 0 0 0 
0 0 0 0 0 0 0 0 0 
0 0 0 0 0 8.37193e-10 0 0 0 
0 0 0 0 0 0 0 0 0 
0 0 0 0 1.05179e-09 0 5.33294e-10 0 0 
0 0 0 0 0 0 0 0 0 
0 0 0 0 0 0 0 0 0 
0 0 0 0 0 0 0 0 0 
0 0 0 0 0 0 0 0 0 
0 0 0 0 0 0 0 0 0 
0 0 0 0 0 0 0 0 0 
0 0 0 0 0 0 0 0 0 
0 0 0 0 0 0 0 0 0 
8.9144e-10 0 0 0 0 0 1.32347e-10 0 0 
0 0 0 3.66848e-10 0 0 0 0 0 
0 0 1.97032e-10 0 0 0 0 6.23501e-13 0 
0 0 0 0 0 0 0 0 0 
0 0 0 0 0 0 0 0 0 
0 0 0 0 0 0 0 0 0 
0 0 0 0 0 0 0 0 0 
1.12674e-09 0 3.26625e-10 6.39144e-10 0 0 0 0 0 
0 0 0 0 0 0 0 0 0 
0 0 0 0 0 0 0 0 0 
0 0 0 3.27782e-10 0 0 0 0 0 
0 0 0 0 0 0 9.26551e-10 0 0 
0 0 0 0 0 0 0 0 0 
0 0 0 0 0 0 0 0 0 
0 0 0 0 0 0 0 0 0 
0 0 0 0 0 0 0 0 0 
0 0 0 0 0 0 0 0 0 
0 0 0 0 0 0 0 0 0 
0 0 0 0 0 0 0 0 0 
0 0 0 0 0 0 0 0 0 
0 0 0 0 0 0 0 0 0 
0 0 0 0 0 0 0 0 0 
0 0 5.8958e-10 0 0 0 0 0 0 
0 0 0 0 0 0 0 0 0 
0 0 0 0 0 0 0 0 0 
0 0 0 0 0 0 0 0 0 
7.43217e-10 0 0 0 0 0 0 9.73149e-10 0 
0 0 0 0 0 0 0 0 0 
0 0 0 0 0 0 0 0 0 
3.03046e-10 0 0 0 1.1003e-09 0 0 0 0 
0 0 0 0 0 0 0 0 0 
0 0 0 0 0 0 0 0 0 
0 0 0 0 0 0 0 0 0 
0 0 0 8.2415e-10 0 0 9.65755e-10 0 0 
0 0 0 4.74333e-10 0 0 0 0 0 
0 0 0 0 0 0 0 0 0 
0 0 0 0 0 1.37285e-10 1.7171e-10 0 0 
0 0 0 0 0 0 0 9.97925e-10 0 
0 0 0 5.26818e-10 0 0 0 0 0 
0 0 0 0 0 8.78337e-10 0 0 0 
0 0 2.39133e-11 0 0 0 0 0 0 
0 0 0 0 0 0 0 1.38609e-09 0 
0 0 0 0 0 0 0 0 0 
0 0 0 0 0 0 0 0 0 
0 0 8.48758e-10 0 0 0 0 0 0 
0 0 0 0 0 0 0 0 0 
0 0 0 0 0 0 0 0 0 
0 0 1.04037e-09 0 0 0 0 0 0 
0 0 0 0 0 0 0 0 0 
0 0 0 0 0 0 7.92738e-10 0 0 
0 0 0 0 0 7.27326e-10 0 0 0 
5.35785e-10 0 0 0 0 0 0 0 0 
0 0 0 0 9.1638e-10 0 0 0 0 
0 0 0 0 0 0 0 0 0 
0 0 0 0 0 0 0 0 0 
0 0 0 0 0 0 0 0 0 
0 4.3781e-10 0 6.82746e-10 0 0 0 0 0 
0 0 0 8.53419e-10 0 0 0 0 0 
0 0 0 0 0 0 0 0 0 
0 0 0 0 0 0 0 0 0 
0 0 5.76064e-10 0 0 0 0 0 0 
0 0 0 0 0 0 0 0 0 
0 0 0 0 0 0 0 0 0 
0 0 3.86678e-10 0 0 0 0 0 0 
0 0 0 0 0 0 0 0 0 
0 0 0 0 0 0 9.83061e-10 0 0 
0 0 0 0 0 0 0 1.1233e-09 0 
0 0 0 0 0 0 0 0 0 
0 0 0 0 0 0 0 0 0 
0 0 0 0 0 0 0 0 0 
0 0 0 0 0 6.02114e-10 0 0 0 
0 1.20957e-09 0 0 0 0 0 0 0 
0 0 0 0 0 0 0 0 0 
0 0 0 0 0 1.19055e-09 0 0 0 
0 0 0 0 0 0 0 0 0 
0 0 0 0 0 0 0 
feature_5 1 2500 float
0 0 0 0 0 0 0 0 0 
0 0 0 0 0 0 0 0 0 
0 0 0 0 0 0 0 0 0 
0 0 0 0 0 0 9.27486e-10 0 0 
3.35287e-10 0 0 0 0 7.89409e-10 0 0 0 
0 0 0 0 0 0 0 0 0 
0 1.18867e-09 0 0 0 0 0 0 0 
0 0 0 0 0 0 0 0 0 
0 0 0 0 0 0 0 0 0 
0 0 0 0 0 0 0 1.35352e-09 0 
0 0 8.02792e-10 0 0 0 0 0 0 
3.28427e-08 0 1.35216e-09 0 0 0 0 0 0 
0 0 5.45725e-10 0 3.13392e-10 0 0 0 0 
0 0 0 0 0 0 0 0 0 
0 0 0 0 0 0 0 0 0 
0 0 0 0 0 0 6.5484e-10 0 0 
0 0 0 0 0 0 0 0 6.98034e-10 
0 0 0 0 0 0 2.42586e-10 0 0 
0 0 0 0 0 0 0 0 0 
0 0 0 0 0 0 0 0 0 
0 0 0 0 0 0 7.8699e-10 0 0 
0 0 0 3.0687e-08 0 0 4.70848e-10 0 2.46374e-08 
0 0 6.40796e-10 7.30878e-10 0 0 0 0 0 
0 0 0 0 0 0 0 0 0 
0 0 1.40505e-08 0 0 0 0 0 0 
0 0 0 0 0 0 0 0 1.18019e-09 
0 0 0 0 0 0 0 0 0 
0 0 1.45442e-08 0 0 0 0 0 0 
0 0 0 0 0 0 0 7.90546e-10 0 
0 0 0 0 0 0 0 0 0 
0 0 0 0 0 0 0 0 0 
0 0 0 0 0 0 0 4.11717e-10 0 
0 0 0 0 1.19028e-09 0 0 0 0 
0 0 0 1.85117e-10 0 0 0 0 0 
0 0 0 0 0 0 0 0 0 
0 0 0 0 0 0 0 0 0 
0 0 0 0 0 0 0 0 0 
0 0 0 0 0 0 0 1.38961e-08 0 
0 0 0 8.39414e-10 0 0 0 0 0 
0 0 0 0 0 0 0 0 0 
0 6.49099e-10 0 0 0 0 0 0 0 
7.70672e-10 0 0 0 0 0 0 0 0 
0 0 0 0 0 0 0 0 3.3971e-11 
4.08056e-10 0 0 0 9.98398e-10 0 0 0 0 
0 0 0 0 0 0 1.847e-08 0 0 
0 0 0 1.27251e-07 0 0 0 0 3.91662e-09 
0 0 0 1.06588e-09 0 3.29763e-10 0 0 0 
0 0 0 0 0 0 0 0 1.03359e-09 
0 0 0 0 0 0 0 0 0 
0 0 0 0 0 0 0 0 0 
0 0 0 0 0 0 0 0 0 
0 1.10252e-09 0 0 7.18597e-10 0 0 0 0 
0 0 0 0 0 0 0 0 0 