# vtk DataFile Version 5.1
vtk output
ASCII
DATASET STRUCTURED_POINTS
DIMENSIONS 50 50 1
SPACING 1 1 1
ORIGIN 0 0 0
POINT_DATA 2500
FIELD FieldData 6
feature_1 1 2500 float
0 0 0 0 1.27558e-09 3.84563e-11 0 0 0 
0 0 0 0 0 0 0 0 0 
0 0 0 0 0 0 1.25524e-09 0 0 
0 0 0 0 0 0 0 0 0 
0 0 0 0 0 0 0 0 4.86338e-10 
0 0 0 0 0 0 0 0 0 
0 0 1.01991e-09 0 2.02362e-10 0 0 0 0 
0 0 0 0 0 0 1.68187e-10 0 0 
0 0 0 0 0 0 0 0 0 
0 0 0 0 0 0 0 0 0 
3.24105e-10 0 0 1.0282e-09 0 0 0 1.17556e-09 9.69539e-10 
0 1.7257e-10 0 0 0 0 0 0 0 
0 0 0 0 0 0 0 0 0 
0 0 0 0 0 0 0 0 0 
0 8.65916e-11 0 0 0 0 0 0 0 
0 0 0 0 0 0 0 0 0 
0 7.09308e-10 0 0 0 0 0 0 0 
0 0 9.33611e-10 0 0 0 0 0 0 
0 0 0 0 0 0 0 0 0 
0 0 0 0 0 0 0 0 0 
0 0 0 0 0 0 0 0 0 
0 0 0 0 0 0 0 0 0 
0 0 0 0 0 0 0 0 0 
0 0 0 0 0 0 0 0 0 
0 0 0 0 1.85693e-10 0 0 6.78408e-10 6.10957e-10 
0 0 0 0 0 0 0 0 0 
0 0 0 0 0 0 0 0 0 
0 0 0 0 0 0 0 0 7.60902e-10 
0 0 0 0 0 0 0 0 0 
0 0 0 0 0 0 0 0 0 
0 0 0 0 0 0 0 0 0 
0 0 0 8.76209e-10 0 0 0 0 0 
0 0 0 0 0 0 0 0 0 
0 0 0 0 0 0 0 0 0 
0 1.09046e-09 0 0 0 0 0 0 0 
0 0 0 4.18575e-10 0 0 0 0 0 
0 0 0 0 0 0 0 0 0 
0 0 0 0 0 2.06539e-10 0 0 0 
0 0 0 0 0 0 0 0 0 
0 0 0 0 0 0 0 1.07325e-09 0 
0 0 0 2.00647e-10 0 0 0 0 2.67675e-08 
1.1283e-09 0 0 0 0 0 0 0 6.77243e-06 
5.09371e-08 0 0 0 0 0 0 0 0 
0 0 0 0 0 0 0 0 0 
0 0 0 0 0 0 0 0 0 
0 0 0 6.78042e-06 0 0 0 0 0 
0 0 0 0 6.79178e-06 0 0 0 0 
0 0 0 0 0 0 0 0 0 
0 7.60611e-10 0 0 0 0 0 0 0 
0 0 0 0 0 0 0 0 0 
0 1.69013e-10 0 0 0 0 0 0 3.14262e-10 
0 0 0 0 0 0 0 0 2.95173e-08 
0 0 0 0 0 0 0 0 0 
0 0 2.59197e-09 0 0 0 0 0 0 
0 0 0 0 0 0 0 0 0 
0 0 0 0 0 0 0 0 0 
5.275e-10 0 0 0 0 0 0 0 0 
0 0 0 7.1871e-06 0 7.20224e-10 0 0 0 
0 0 0 0 0 0 0 0 0 
0 0 3.09163e-08 0 1.28296e-09 0 0 0 0 
6.87273e-06 0 0 0 0 8.7941e-10 0 0 0 
0 0 0 0 8.33587e-10 0 0 0 0 
0 0 7.19096e-06 0 0 7.02463e-06 0 7.35833e-06 9.23151e-10 
0 0 0 5.68868e-10 0 0 0 0 0 
0 0 0 0 0 0 8.09844e-06 8.39574e-06 0 
0 3.80632e-08 6.88844e-06 0 0 3.30641e-08 0 0 0 
0 0 0 0 0 0 0 0 0 
0 0 0 0 0 6.09946e-08 7.16871e-06 0 0 
0 0 0 0 0 0 0 0 0 
0 0 0 0 5.37963e-10 0 0 0 0 
0 1.66672e-09 0 0 7.2543e-06 0 0 3.49794e-08 0 
6.93552e-06 0 0 0 0 0 0 0 0 
0 0 0 8.49116e-10 0 0 0 0 0 
0 1.54671e-08 0 0 0 0 0 0 0 
0 0 0 0 0 0 0 0 6.80431e-06 
0 0 6.81087e-06 0 0 0 0 0 0 
0 1.02468e-09 0 0 0 0 0 0 0 
0 0 1.1274e-09 0 0 0 0 0 0 
0 0 0 0 0 6.00767e-10 0 0 0 
0 0 0 0 0 0 0 0 0 
0 2.27457e-10 0 0 2.22491e-08 0 0 5.35747e-08 0 
0 0 0 0 0 0 0 0 0 
0 0 0 0 0 0 0 0 0 
0 0 0 0 0 0 0 0 0 
0 0 4.82338e-10 0 0 6.91612e-06 0 2.5937e-07 7.38915e-06 
0 0 0 0 0 0 0 0 0 
0 0 0 0 0 0 0 6.86993e-06 6.60485e-08 
0 0 0 0 0 0 0 0 0 
0 0 0 0 0 0 0 0 1.63719e-09 
0 0 0 0 0 0 0 0 0 
0 4.70831e-08 0 7.64023e-06 0 0 0 0 0 
8.07702e-10 1.66626e-08 6.79953e-06 3.15791e-08 0 0 0 5.71539e-10 0 
0 0 0 0 5.77042e-08 0 0 0 0 
0 0 0 0 0 0 0 0 0 
0 0 0 0 0 0 0 0 0 
0 0 0 5.28234e-10 7.71099e-11 0 0 0 0 
7.45443e-06 0 0 7.03888e-09 0 1.69523e-09 0 0 0 
0 0 2.21044e-08 0 0 0 8.54826e-09 0 0 
0 0 0 0 6.12474e-07 0 0 0 0 
7.78488e-10 0 3.42226e-10 5.10347e-10 0 0 0 9.42098e-10 0 
6.74085e-10 0 0 1.44663e-09 0 0 0 0 0 
0 0 6.83919e-06 0 0 0 3.8981e-08 0 0 
0 9.48219e-11 0 0 0 0 0 0 6.97835e-06 
0 0 0 0 0 8.10873e-06 0 0 7.50096e-06 
0 7.56053e-06 0 0 0 0 7.92493e-10 0 0 
0 0 0 0 0 0 0 0 0 
0 0 0 0 0 0 0 0 0 
0 0 7.07936e-06 0 7.22915e-06 7.37359e-08 8.60317e-06 9.3053e-06 0 
0 0 0 4.92754e-08 0 0 0 0 0 
0 5.64284e-08 0 0 0 7.99591e-06 0 0 0 
0 0 0 0 0 0 0 0 0 
0 0 0 8.94474e-10 0 0 0 0 0 
0 0 0 0 0 0 0 0 0 
0 0 0 8.41413e-06 4.25696e-08 1.24594e-09 0 0 0 
0 0 0 0 0 0 0 0 7.41792e-06 
0 0 7.43941e-06 0 0 0 0 0 0 
0 0 0 0 0 0 0 0 0 
0 0 0 0 0 0 0 0 0 
0 0 0 0 0 0 0 0 3.11101e-08 
0 0 0 0 0 0 0 0 0 
0 7.09008e-06 0 7.53796e-06 0 0 0 2.95228e-08 0 
0 0 0 0 0 0 0 0 0 
0 0 0 0 0 0 0 0 2.51925e-08 
8.01402e-06 8.01979e-06 0 0 0 0 0 6.78881e-06 0 
0 0 0 0 1.9783e-08 0 0 0 0 
0 0 0 0 0 0 0 0 7.01989e-08 
0 0 0 0 0 0 0 0 0 
0 0 0 0 0 0 0 0 0 
0 0 0 0 1.64073e-08 0 0 0 0 
0 0 0 4.40536e-08 0 0 3.23382e-08 6.86376e-06 0 
0 0 0 0 0 0 7.18364e-06 0 0 
0 0 0 7.13942e-06 0 7.12181e-06 0 0 6.83537e-06 
2.73242e-08 0 0 0 1.00873e-09 0 0 0 0 
0 0 0 0 0 0 0 0 0 
0 0 2.77844e-10 0 0 0 0 0 0 
0 0 0 0 0 0 0 0 0 
0 0 0 7.20054e-06 0 0 0 0 0 
0 1.402e-08 0 0 0 0 0 0 0 
0 0 0 0 0 0 0 0 0 
0 0 0 0 0 0 0 0 0 
0 0 0 0 0 0 0 0 0 
6.95439e-06 0 0 0 0 8.21181e-06 0 0 0 
0 0 0 0 0 0 0 1.05344e-08 0 
0 0 0 0 0 0 4.05262e-10 0 0 
0 0 0 0 0 0 0 0 0 
0 0 0 0 0 0 0 0 0 
0 0 0 0 1.22133e-09 0 0 2.1958e-08 7.53122e-06 
3.14684e-06 8.61485e-06 0 0 0 0 0 0 0 
0 7.30186e-10 0 0 0 0 0 0 0 
3.28158e-08 0 0 0 0 0 0 0 0 
0 0 0 0 0 0 0 0 0 
0 0 0 0 0 0 0 0 0 
0 0 6.97193e-06 0 0 7.64563e-06 0 0 0 
6.908e-06 0 0 0 1.88476e-08 0 0 0 0 
0 0 0 0 6.76954e-06 3.31643e-08 0 0 0 
0 0 0 2.58447e-10 0 0 0 0 0 
0 0 0 0 0 0 0 0 6.74167e-08 
0 0 0 0 0 0 0 0 0 
0 0 0 0 0 0 0 7.05581e-06 0 
6.70355e-06 0 0 0 6.7971e-06 0 8.39055e-10 0 0 
0 0 0 0 0 0 0 0 0 
0 0 0 0 0 0 0 0 0 
6.88076e-06 0 0 0 6.87685e-06 0 0 0 0 
0 0 0 0 0 0 0 0 0 
0 0 0 2.54501e-08 0 0 0 0 0 
0 0 9.08052e-10 7.92202e-11 0 0 0 0 0 
0 0 0 0 0 0 0 0 0 
0 0 0 0 0 0 0 8.17862e-06 0 
0 0 0 3.76605e-09 0 0 0 0 0 
0 0 0 0 0 0 0 0 0 
0 0 2.90889e-08 6.8155e-06 1.35943e-08 0 0 0 0 
0 0 0 0 0 8.45901e-11 0 0 0 
0 0 0 0 0 0 0 0 0 
0 0 0 8.05726e-06 0 0 0 0 0 
0 0 0 6.79457e-06 1.26702e-09 0 0 0 0 
0 0 0 0 0 0 0 0 0 
0 0 0 0 0 0 0 0 0 
0 0 0 0 0 0 0 0 0 
0 0 0 0 0 0 0 0 0 
0 7.67685e-10 0 0 0 0 0 1.48058e-09 0 
0 0 1.06365e-09 0 0 0 0 0 0 
4.85062e-08 0 0 0 0 0 0 0 1.46753e-09 
7.23302e-06 0 0 0 0 0 0 0 0 
0 0 1.16175e-09 0 0 0 0 0 0 
0 0 0 0 0 0 0 6.7829e-06 6.88544e-10 
1.16679e-08 0 3.33882e-10 0 0 0 0 0 0 
0 0 0 0 3.1461e-08 6.7805e-06 4.32908e-08 0 0 
0 0 0 0 7.18639e-06 0 1.05271e-07 6.8872e-06 0 
0 0 0 0 0 0 0 0 0 
0 0 0 0 0 0 0 0 0 
0 0 0 0 0 0 0 4.01077e-08 6.88299e-06 
4.03474e-08 0 0 0 0 0 3.67282e-08 0 0 
0 0 0 0 0 0 0 1.21917e-10 0 
0 0 1.6497e-08 0 0 0 0 0 0 
0 0 0 0 0 0 0 0 0 
6.30472e-10 0 0 6.77721e-06 0 0 0 0 0 
0 0 0 0 0 0 0 0 0 
0 0 6.96497e-06 4.61437e-08 0 0 0 0 0 
0 1.61996e-09 0 0 0 0 0 0 0 
0 0 0 0 0 0 0 0 0 
0 0 0 0 0 0 0 0 0 
0 0 0 0 0 3.81455e-10 0 8.03108e-06 3.78671e-10 
0 3.82411e-10 4.00812e-10 0 8.02705e-06 8.10397e-06 0 0 0 
6.989e-06 0 0 0 0 0 0 0 0 
0 0 0 0 0 0 0 0 0 
0 0 0 0 0 0 0 0 0 
0 0 8.34262e-10 0 0 0 3.94872e-10 0 0 
7.701e-10 0 0 0 0 0 0 5.75294e-10 0 
0 0 0 0 3.83723e-08 0 1.11018e-09 0 0 
0 0 0 0 1.1794e-09 1.39853e-09 0 0 0 
0 0 0 0 0 0 0 0 0 
0 0 0 0 0 0 0 0 0 
0 0 1.77023e-08 0 0 0 3.22951e-10 0 0 
0 0 0 0 0 0 0 0 0 
8.44038e-06 0 8.31906e-08 7.21718e-06 0 0 0 0 0 
0 0 0 9.59957e-10 0 0 0 0 0 
0 0 0 0 0 0 0 0 0 
0 0 0 0 0 2.2234e-08 6.80301e-06 0 0 
7.00193e-06 0 0 0 0 0 0 0 0 
0 1.32009e-09 0 0 5.56153e-10 8.84687e-06 0 7.48914e-06 0 
0 0 0 0 6.83244e-10 0 0 0 1.11328e-08 
2.75556e-08 0 0 0 1.511e-08 0 0 0 0 
0 0 2.0685e-10 0 0 5.15392e-10 0 0 1.10795e-09 
0 0 0 0 0 5.48377e-08 0 0 0 
0 0 0 2.19877e-10 0 0 0 6.84171e-06 0 
0 0 0 0 0 0 0 0 0 
0 8.17717e-06 0 0 0 6.91114e-06 0 0 6.88237e-06 
9.21322e-10 0 0 0 5.39309e-10 6.699e-10 0 1.02046e-09 0 
0 0 0 0 1.41028e-09 1.27793e-09 0 0 0 
2.8186e-08 6.97867e-06 0 0 0 0 0 0 0 
0 0 0 0 0 0 0 0 0 
3.54142e-08 0 0 0 7.05574e-06 0 8.42119e-06 0 7.14821e-06 
0 0 0 0 0 0 0 0 0 
0 0 0 0 0 0 0 0 0 
0 0 0 0 0 0 0 0 0 
0 0 0 0 0 8.92737e-10 0 0 0 
0 0 0 0 0 6.79283e-06 2.37129e-08 0 0 
6.27169e-08 0 4.29868e-08 0 0 0 0 3.11491e-08 6.87211e-06 
0 0 0 0 0 0 8.56172e-10 0 0 
0 0 0 0 0 0 0 0 0 
0 0 0 0 0 0 0 0 0 
0 0 0 0 7.58316e-10 0 0 0 0 
0 0 0 0 0 0 0 0 0 
0 0 0 0 0 0 0 0 0 
0 0 0 0 0 0 0 0 0 
0 0 0 0 0 0 0 0 0 
0 0 0 0 0 0 0 0 0 
0 0 0 0 0 0 1.94954e-08 0 0 
0 5.96337e-10 0 0 0 0 0 0 0 
0 0 0 0 0 0 0 0 0 
0 0 0 0 0 0 0 1.1793e-09 0 
0 0 0 0 0 0 0 0 0 
0 0 0 0 0 0 0 0 0 
0 0 0 0 0 0 0 0 0 
0 0 0 0 0 7.29612e-09 0 7.9055e-10 0 
0 0 0 0 0 0 0 0 0 
0 0 0 0 0 0 0 0 0 
0 0 0 0 0 0 0 0 0 
0 0 0 0 0 0 0 0 0 
0 0 0 0 0 0 0 0 0 
0 0 0 1.13804e-09 0 0 0 0 0 
0 0 0 0 0 0 0 0 0 
0 0 0 0 0 0 0 0 0 
0 0 0 0 0 0 0 0 0 
0 0 0 0 0 0 1.01533e-09 0 1.28606e-09 
0 0 0 0 0 0 0 0 0 
0 0 0 0 0 0 0 0 0 
0 0 0 0 0 2.23334e-10 0 0 0 
0 3.73518e-10 0 0 0 0 0 3.81604e-10 0 
0 0 0 1.55929e-10 0 0 0 0 0 
0 0 0 0 0 0 0 0 0 
0 0 0 0 0 0 0 0 0 
0 0 0 0 0 0 0 0 0 
0 0 0 0 0 1.01111e-09 0 0 0 
0 0 0 0 0 0 0 0 3.9588e-10 
0 0 0 0 0 0 0 0 0 
0 0 0 0 0 0 0 0 0 
0 0 0 0 0 0 0 
feature_2 1 2500 float
0 0 0 0 0 0 0 0 0 
0 0 0 0 0 0 0 0 0 
0 0 0 0 0 0 0 0 0 
0 0 0 0 0 0 0 0 0 
0 0 0 0 0 0 0 0 0 
0 0 0 1.01569e-09 0 0 0 0 0 
0 0 0 0 0 1.08847e-09 3.71248e-10 0 0 
0 0 0 0 0 0 0 0 0 
0 0 0 0 0 0 0 0 0 
0 0 0 0 0 0 6.03926e-10 0 0 
0 0 0 0 0 0 0 0 0 
2.72953e-08 0 0 0 0 0 0 0 0 
0 0 0 0 0 0 0 0 0 
0 0 0 0 0 0 0 0 0 
0 0 0 0 0 0 0 0 0 
8.6801e-10 0 0 0 0 0 0 0 0 
0 0 0 0 0 0 0 0 0 
0 0 0 0 0 0 0 0 0 
0 0 0 0 0 0 0 0 0 
0 0 0 0 0 0 0 0 0 
0 0 3.37002e-11 0 0 0 0 0 0 
0 6.20261e-10 0 0 0 0 0 6.6089e-10 0 
0 0 0 0 0 0 0 0 0 
0 0 0 4.16204e-10 0 0 0 0 0 
0 0 0 0 0 0 0 0 0 
0 0 9.7203e-10 5.10424e-10 0 0 0 0 0 
0 1.23936e-09 0 0 0 0 0 0 0 
0 0 1.42217e-08 0 0 0 0 0 0 
0 0 0 0 0 0 0 0 0 
0 0 0 0 1.02535e-09 0 0 0 0 
0 0 0 0 0 0 0 0 0 
0 0 9.21176e-10 0 0 2.85194e-10 0 0 0 
0 0 0 0 0 0 0 0 0 
0 0 0 0 0 0 0 0 0 
0 0 0 0 0 0 0 0 0 
0 0 0 0 0 0 0 9.75195e-10 0 
0 0 0 0 0 0 0 0 0 
0 0 1.05907e-08 0 0 0 0 0 0 
0 0 0 0 0 0 0 0 0 
0 0 0 0 0 0 0 2.61508e-10 0 
0 0 0 0 0 0 0 0 0 
0 0 0 0 0 0 0 0 0 
0 0 0 0 0 2.90992e-10 0 0 0 
0 0 0 0 0 0 7.58522e-10 3.96924e-10 0 
0 0 0 0 0 0 1.79657e-08 0 0 
0 0 0 9.46473e-08 0 0 3.82105e-10 0 0 
0 0 0 0 0 0 0 0 0 
0 0 0 0 0 0 0 0 0 
0 0 0 0 0 0 0 0 0 
0 0 0 0 0 0 0 0 0 
0 0 0 0 0 0 0 0 0 
0 0 0 0 0 0 0 0 0 
0 0 0 0 0 0 0 0 0 
0 0 0 0 0 0 0 0 0 
0 0 0 0 0 0 0 0 0 
0 0 9.1058e-10 0 0 0 0 0 0 
0 0 0 0 0 0 0 0 0 
0 0 0 0 0 0 0 1.27095e-09 0 
0 0 0 0 0 0 0 0 0 
0 0 0 0 0 0 0 0 0 
0 0 0 0 0 0 0 0 0 
0 0 0 0 0 0 0 0 0 
1.12112e-09 0 0 0 0 0 0 0 0 
0 0 0 0 0 0 0 0 0 
0 0 0 0 0 0 0 0 0 
0 0 1.27116e-09 0 0 0 0 0 0 
0 0 0 0 0 0 0 0 0 
0 0 0 0 0 0 0 1.27412e-10 3.32594e-10 
0 0 0 0 0 0 0 0 0 
0 0 0 0 0 0 0 0 0 
0 0 0 0 0 0 0 0 0 
0 0 0 0 0 0 0 0 0 
0 0 0 0 0 0 0 0 0 
0 0 0 0 0 0 0 5.04464e-10 0 
0 6.89887e-10 0 0 0 8.04331e-10 0 0 0 
0 0 9.76762e-10 0 0 0 0 0 0 
0 0 0 0 0 0 0 0 0 
0 0 0 1.07376e-09 0 0 0 0 0 
0 0 0 0 0 0 2.04351e-09 0 6.61167e-10 
0 0 0 0 0 0 0 0 0 
0 0 5.21123e-10 0 0 0 0 0 0 
0 0 0 0 0 0 0 0 7.15563e-10 
0 0 0 0 0 0 0 0 0 
0 0 0 0 0 0 0 0 0 
7.13761e-10 0 0 0 0 0 0 6.81931e-07 3.23669e-07 
0 0 0 0 0 0 0 0 0 
0 0 0 0 0 0 0 0 0 
0 0 0 0 2.16712e-10 0 0 0 0 
0 0 0 0 0 0 0 0 0 
0 0 0 0 0 0 0 0 0 
0 0 0 1.19357e-07 0 0 0 0 0 
0 5.40869e-10 0 0 0 0 0 0 0 
0 0 0 0 0 0 0 0 0 
0 0 0 0 0 0 0 1.78197e-10 0 
0 0 0 1.11959e-09 0 0 0 0 0 
0 0 0 4.94362e-10 0 0 0 0 0 
0 0 0 0 0 0 0 0 1.57367e-11 
0 0 0 0 0 0 0 0 0 
0 0 0 0 0 0 5.33632e-10 0 0 
0 0 0 0 0 0 0 0 0 
0 0 0 0 0 1.12518e-09 0 0 0 
0 0 9.88635e-10 0 0 0 9.45381e-10 0 0 
0 0 0 0 0 0 0 0 0 
0 1.56093e-09 9.97773e-10 0 8.64031e-10 0 0 0 0 
0 0 0 0 0 3.76964e-10 0 0 0 
0 0 0 0 0 0 0 0 0 
0 0 0 8.32802e-10 0 0 0 0 0 
0 0 0 0 0 0 0 0 0 
0 0 0 0 0 0 0 0 0 
1.40957e-10 0 0 0 0 0 0 0 0 
0 0 0 0 0 0 0 0 0 
0 0 0 0 0 0 0 0 0 
0 0 0 0 0 0 0 0 0 
0 0 0 0 0 0 0 0 0 
0 0 0 0 0 0 0 0 0 
0 0 0 0 0 0 0 0 0 
0 0 0 0 0 1.17234e-09 0 0 0 
0 0 0 0 0 0 0 0 0 
0 0 0 0 0 0 0 0 0 
0 0 0 0 0 0 0 0 0 
0 0 0 0 0 0 0 0 0 
0 0 0 0 3.52591e-10 0 0 0 0 
0 0 0 0 0 0 0 0 0 
0 0 0 0 0 0 0 0 0 
0 0 4.83311e-11 0 1.11658e-09 0 0 0 0 
0 0 0 0 0 0 0 0 0 
0 0 0 0 0 0 0 0 0 
0 0 0 1.40933e-09 0 0 0 0 0 
0 0 0 0 0 0 0 0 0 
0 0 0 0 0 0 0 1.18816e-09 0 
0 0 0 0 0 0 0 0 0 
0 0 0 0 0 0 0 0 0 
0 0 0 0 0 0 0 1.0116e-09 0 
0 0 0 0 3.85986e-10 0 0 0 0 
0 0 0 0 0 0 0 2.20992e-09 0 
3.99254e-11 0 0 0 0 0 0 0 0 
0 0 0 0 0 0 0 0 0 
0 0 0 0 0 0 0 0 7.09839e-10 
0 0 0 0 0 0 0 0 0 
0 0 0 0 0 4.94767e-10 0 0 0 
0 0 0 0 0 0 0 0 0 
0 0 0 0 9.20402e-10 0 0 0 4.18524e-10 
0 0 0 0 0 0 0 0 0 
0 0 0 0 0 0 0 0 0 
0 0 0 0 0 0 0 0 0 
0 0 0 0 0 0 0 0 0 
0 2.22183e-08 0 9.37213e-10 0 0 3.44226e-10 0 0 
0 0 0 0 0 0 0 0 0 
0 0 0 0 0 0 0 0 0 
0 0 0 1.09906e-09 0 0 0 0 0 
0 0 0 0 0 0 0 0 0 
0 2.0053e-10 0 0 0 0 0 3.92228e-10 0 
0 0 0 0 0 1.77091e-08 0 0 0 
0 0 0 0 0 0 0 0 0 
0 0 0 6.50545e-10 0 0 0 3.10957e-10 1.18582e-08 
0 0 0 0 0 0 0 0 0 
0 0 0 0 0 0 0 0 0 
0 0 0 0 0 0 0 0 0 
0 0 0 0 0 0 0 0 0 
0 0 0 0 0 0 0 0 0 
0 0 0 0 0 0 0 0 0 
0 0 0 0 0 0 0 0 0 
1.3944e-09 0 0 0 0 0 0 0 0 
0 0 0 0 0 0 0 0 0 
0 0 0 0 0 0 0 0 0 
0 3.91148e-10 0 0 0 0 0 0 0 
0 0 0 0 0 0 0 0 0 
0 0 0 0 0 0 0 0 0 
0 0 0 0 0 0 0 0 0 
0 0 0 0 0 0 0 0 6.04071e-10 
0 0 0 0 0 0 0 0 0 
0 0 0 0 0 1.16076e-09 0 0 0 
0 0 0 0 0 0 0 6.549e-10 0 
0 0 0 0 0 0 0 0 0 
0 0 9.98348e-10 0 0 0 0 0 0 
0 0 0 0 0 0 0 0 0 
0 0 0 0 0 0 0 0 0 
0 0 0 0 0 0 0 0 0 
0 0 0 0 0 0 0 0 0 
0 0 0 0 0 0 0 8.27718e-10 6.34262e-10 
0 0 0 3.50262e-10 0 0 0 0 0 
0 0 0 0 0 0 0 0 0 
0 0 0 0 0 0 0 0 9.57328e-10 
0 0 1.00819e-10 1.10003e-09 0 1.5091e-09 0 0 0 
0 0 0 0 0 0 0 0 0 
0 0 9.04947e-10 0 0 0 0 0 0 
0 0 0 0 0 0 0 0 0 
0 0 0 0 0 0 0 0 0 
0 0 0 0 0 0 0 0 0 
0 0 0 0 0 0 0 0 0 
0 0 0 0 0 0 0 0 0 
8.45265e-10 0 0 0 0 0 0 0 0 
7.60989e-10 0 0 0 0 0 0 0 0 
0 0 0 0 0 0 0 0 0 
0 0 0 0 0 0 0 0 0 
0 0 0 0 0 0 0 0 0 
0 0 0 0 0 0 0 0 0 
7.02533e-10 0 0 0 0 9.33422e-10 0 0 0 
0 0 0 0 0 0 6.72262e-10 5.37625e-10 0 
0 0 0 0 0 0 0 0 0 
0 7.34792e-10 0 0 0 0 0 0 0 
0 2.40732e-11 0 0 0 0 0 0 0 
0 1.4503e-09 0 0 0 0 0 0 0 
0 0 0 0 0 0 0 0 0 
0 0 0 0 0 0 0 0 0 
1.38433e-09 0 0 0 0 0 0 0 0 
0 3.60997e-10 0 0 0 0 0 0 0 
0 0 0 0 0 0 0 0 0 
0 0 0 1.19814e-09 0 0 0 0 0 
0 0 0 0 0 0 0 0 0 
0 0 0 0 0 0 0 0 0 
1.6272e-09 0 0 0 0 0 0 0 0 
0 0 0 0 0 0 0 0 0 
0 0 0 0 0 0 0 0 0 
1.55242e-09 9.99272e-11 0 0 0 0 0 0 0 
0 0 0 0 0 0 0 0 0 
0 0 0 3.34099e-08 0 0 0 0 1.28226e-08 
0 0 0 0 0 0 0 0 0 
1.57248e-09 0 0 0 0 0 4.6651e-10 0 0 
0 0 0 0 0 0 0 0 7.31596e-10 
0 0 0 0 0 0 0 0 0 
0 0 0 0 0 0 0 0 0 
0 0 0 0 0 0 0 0 0 
0 0 0 0 0 0 0 0 0 
0 0 0 0 0 0 0 0 1.22083e-09 
1.10252e-09 0 0 0 0 0 0 0 0 
0 0 0 0 0 0 0 0 0 
0 9.29138e-10 0 3.17731e-09 1.84172e-08 0 0 0 0 
0 0 0 1.00658e-09 0 0 0 0 0 
0 0 0 0 0 0 0 0 9.57506e-10 
0 0 1.14308e-08 0 0 0 0 0 0 
0 0 0 0 0 0 0 0 0 
0 0 0 0 0 1.83292e-10 0 0 0 
0 0 0 0 0 0 0 0 2.32735e-08 
0 0 0 0 0 0 0 0 0 
0 0 0 0 4.73964e-10 0 0 0 0 
0 0 0 0 0 0 0 0 0 
0 0 0 0 0 0 0 0 0 
0 0 0 4.84242e-10 0 0 0 2.89567e-10 0 
0 0 0 0 0 0 0 0 0 
0 0 0 0 0 0 0 4.99394e-10 0 
0 0 0 0 0 5.58972e-10 0 0 0 
0 0 0 0 0 0 0 0 0 
0 1.35323e-09 0 0 0 0 0 0 0 
0 0 0 0 0 0 0 0 0 
0 0 0 0 0 0 0 0 0 
0 0 0 0 0 0 0 0 0 
0 0 0 8.92513e-10 0 0 0 0 0 
0 0 0 3.49127e-09 0 0 0 5.7813e-10 0 
0 0 0 0 0 0 0 0 0 
0 0 0 0 0 0 0 1.74803e-08 0 
0 0 0 0 0 0 0 0 0 
0 0 0 0 0 0 6.49658e-10 0 0 
0 0 0 0 0 0 0 0 0 
0 0 0 0 0 0 1.09986e-09 0 0 
0 0 0 0 0 0 0 0 0 
0 0 0 9.48752e-10 0 0 0 0 0 
0 0 0 0 0 0 0 0 0 
0 0 0 0 0 0 0 5.50893e-10 0 
0 0 0 0 0 0 0 0 0 
0 8.48992e-10 0 0 0 0 0 0 0 
0 0 9.43233e-10 3.83103e-10 0 0 0 0 0 
0 0 5.71783e-10 0 2.92196e-08 0 0 0 0 
0 0 0 0 0 0 0 0 0 
0 0 0 0 0 0 0 0 0 
0 0 0 0 0 0 0 5.46718e-10 0 
0 0 0 2.32032e-09 0 0 0 0 0 
0 0 0 0 0 0 0 9.47963e-10 0 
0 0 9.49676e-11 0 0 0 0 0 0 
0 0 2.82069e-09 0 0 0 3.97204e-10 0 2.16971e-08 
0 0 0 0 4.89347e-10 0 0 0 0 
0 0 0 0 0 0 0 0 0 
8.35652e-10 0 0 0 0 0 0 0 0 
0 0 0 0 0 0 0 0 0 
0 0 0 0 0 0 0 0 0 
6.53426e-10 0 0 0 6.41798e-10 0 0 0 0 
0 1.97263e-10 0 0 0 0 0 0 0 
0 0 0 0 0 0 0 
feature_3 1 2500 float
0 0 0 0 0 0 0 0 0 
0 0 0 0 0 2.91166e-10 0 0 0 
0 0 0 0 0 0 0 0 1.84187e-10 
0 0 0 0 0 0 0 0 0 
0 0 0 0 0 0 0 0 0 
0 0 0 0 0 1.30067e-09 0 0 0 
0 0 0 0 0 0 0 0 0 
9.32079e-10 0 0 0 0 0 0 0 0 
0 0 0 0 0 0 0 0 0 
0 0 0 0 0 0 0 0 0 
0 0 0 0 0 0 0 0 0 
0 0 0 0 0 0 0 0 0 
0 0 0 0 0 0 0 9.74911e-10 0 
0 0 0 1.46416e-09 0 0 7.2092e-10 0 0 
0 0 0 0 0 0 0 0 0 
0 0 0 8.84821e-10 0 0 0 0 0 
0 0 0 0 0 0 0 0 0 
0 0 0 0 0 0 0 0 0 
0 0 0 0 8.95152e-09 0 0 0 5.83389e-10 
0 0 0 0 0 0 0 0 0 
0 0 0 0 0 0 0 0 0 
0 0 0 0 0 0 0 0 0 
0 6.81311e-10 0 0 0 0 0 0 0 
0 0 0 0 0 0 0 0 0 
0 0 0 0 0 0 0 0 0 
0 0 0 0 0 0 0 0 0 
7.39796e-10 0 0 0 0 0 1.17558e-10 0 3.06365e-10 
3.56533e-10 0 0 0 0 0 1.57357e-10 0 0 
0 0 1.14252e-10 0 0 0 0 0 0 
0 0 0 0 0 0 0 0 0 
0 0 0 0 0 0 0 0 1.01411e-09 
0 0 0 0 0 0 0 0 0 
0 0 0 0 0 0 0 0 0 
0 0 0 0 0 0 0 0 0 
0 0 0 0 0 0 0 0 0 
0 0 0 0 0 0 0 0 0 
0 0 0 0 3.59634e-10 0 0 0 0 
0 0 0 0 0 0 0 0 0 
0 0 0 0 0 0 0 0 0 
0 0 0 0 5.93658e-10 0 0 0 0 
0 0 0 0 0 0 0 0 0 
0 0 0 0 0 0 0 0 0 
0 0 0 0 0 0 0 0 0 
0 0 0 0 0 0 0 0 0 
0 0 0 8.15213e-10 0 0 0 0 3.33355e-10 
0 0 0 0 0 0 0 0 0 
0 0 0 0 0 0 0 0 0 
3.40606e-10 0 0 0 0 0 0 0 0 
0 0 4.42888e-10 0 0 0 0 0 0 
0 0 0 0 0 0 0 0 0 
8.48253e-10 0 0 0 0 0 0 0 0 
0 0 0 0 0 0 0 0 0 
0 0 0 0 0 0 0 0 2.78924e-10 
0 0 0 0 0 0 0 0 0 
0 0 0 0 0 0 0 0 0 
0 0 0 0 0 0 0 0 0 
0 0 0 0 0 0 0 0 0 
0 0 0 0 0 0 0 0 0 
0 0 0 0 0 0 0 0 0 
0 0 0 0 0 0 0 0 0 
0 0 0 0 1.50031e-09 0 0 5.3171e-10 0 
0 0 0 0 0 0 0 0 0 
0 0 0 0 0 0 0 0 0 
0 0 0 0 0 0 0 0 0 
0 0 0 0 0 0 0 0 0 
0 0 0 0 0 0 0 0 0 
0 0 0 0 0 0 0 0 0 
0 0 0 0 0 0 0 0 0 
0 0 0 0 0 0 8.99032e-11 0 0 
0 0 0 0 0 0 0 0 0 
0 0 0 0 0 0 0 0 0 
0 0 0 0 0 0 0 0 0 
0 0 0 9.0952e-10 0 0 0 0 0 
0 0 0 0 0 0 0 0 0 
5.61737e-10 0 0 0 0 0 0 0 0 
0 0 0 0 0 0 0 0 0 
0 7.21236e-11 0 0 0 0 1.05164e-09 0 0 
0 0 0 0 0 0 0 1.17533e-09 0 
0 0 0 0 0 0 0 0 0 
1.14418e-09 0 0 0 0 0 0 0 0 
0 0 0 0 0 3.47217e-10 0 0 0 
0 0 0 0 0 0 5.63325e-10 0 0 
0 0 0 0 3.92937e-10 0 0 0 0 
0 0 0 0 0 0 0 0 0 
0 0 0 0 0 0 0 0 0 
0 0 0 9.88759e-10 0 0 0 0 0 
0 0 0 0 0 0 0 0 0 
0 0 0 0 0 0 0 0 0 
1.04524e-09 0 0 0 0 0 0 0 0 
0 0 0 0 0 0 0 0 0 
0 0 0 0 0 0 0 0 0 
0 0 0 0 0 0 0 0 0 
0 0 0 0 0 0 0 0 0 
0 0 0 0 0 0 0 0 8.01398e-10 
0 1.07972e-09 0 0 0 0 0 0 5.81998e-10 
0 0 0 0 0 0 6.07269e-10 0 0 
0 0 0 0 0 0 0 0 0 
0 0 0 0 0 0 0 0 0 
0 0 0 0 1.02604e-07 0 0 0 0 
0 0 0 0 0 0 0 0 0 
0 0 0 0 0 0 0 0 0 
0 0 0 0 0 0 0 0 0 
0 0 8.05592e-10 0 0 0 3.5271e-10 0 0 
0 0 0 0 0 0 0 0 0 
0 0 0 0 0 0 0 0 0 
0 1.12789e-09 0 0 0 0 0 0 0 
1.80897e-10 0 0 0 0 0 0 0 0 
0 0 0 0 0 0 0 0 0 
0 0 0 0 0 9.14469e-11 0 0 0 
0 0 0 0 0 0 0 0 0 
0 0 0 0 0 0 0 0 0 
9.69241e-10 0 0 0 0 5.98686e-10 0 0 0 
0 0 0 0 0 0 0 0 0 
3.82503e-10 0 0 0 0 0 0 0 0 
0 0 0 0 0 0 0 0 0 
0 0 0 0 0 0 0 0 0 
0 0 0 0 0 0 0 0 0 
5.95929e-10 0 0 0 0 0 0 0 0 
0 0 0 0 0 0 0 0 0 
0 0 0 0 0 0 0 0 0 
0 0 0 0 0 0 0 0 0 
0 0 0 0 0 0 1.24663e-09 1.02293e-09 0 
0 0 2.99106e-08 0 0 0 0 0 0 
0 0 0 0 0 0 8.67377e-11 0 0 
0 0 0 0 2.69247e-09 0 0 0 0 
0 0 5.73506e-09 0 0 0 0 0 0 
0 0 0 0 0 0 0 0 0 
0 0 0 0 0 0 0 0 1.03904e-09 
0 3.31477e-10 0 0 0 0 0 0 0 
0 0 0 0 0 0 0 0 1.00025e-09 
0 0 0 0 7.22338e-11 0 0 0 0 
0 0 0 0 0 0 0 0 0 
0 0 0 0 0 0 0 0 0 
0 0 0 0 0 0 0 0 0 
0 0 0 1.86304e-11 0 0 0 0 0 
0 0 0 0 0 0 0 0 0 
0 0 0 0 0 0 0 0 0 
0 0 0 0 0 0 0 0 0 
0 0 0 0 0 0 0 0 6.93362e-10 
0 0 0 0 0 0 0 0 0 
0 0 0 0 0 0 0 0 0 
0 0 0 0 0 0 0 0 0 
8.89422e-12 0 0 0 0 0 0 0 0 
0 0 0 0 0 0 0 0 0 
0 0 0 0 1.49207e-09 1.98829e-08 0 0 2.18353e-08 
0 0 0 0 0 0 0 6.90367e-10 0 
0 1.66721e-08 0 0 0 0 0 0 0 
0 7.62274e-10 0 0 0 0 0 0 0 
0 0 0 0 0 0 0 0 0 
0 0 0 0 0 0 0 0 0 
0 0 0 0 0 0 0 0 5.18106e-10 
0 0 0 0 0 9.97705e-10 0 0 0 
0 0 0 0 0 0 0 0 0 
0 0 0 0 0 5.32593e-10 0 0 0 
0 0 0 0 0 0 0 0 0 
0 9.898e-10 0 0 0 0 0 0 0 
0 0 0 0 0 0 0 0 0 
0 0 0 0 0 3.02407e-11 0 0 3.23084e-11 
0 0 0 0 0 0 0 0 0 
0 0 0 0 0 0 0 0 0 
0 0 0 0 0 0 0 4.81332e-10 0 
2.08734e-10 0 0 0 0 0 0 0 0 
0 0 4.67375e-10 0 0 0 4.44202e-10 0 0 
0 0 0 0 0 0 0 0 0 
0 0 0 0 0 0 0 0 0 
0 0 0 0 0 0 0 0 0 
0 0 0 0 0 0 0 0 0 
0 0 0 0 0 0 0 1.09622e-09 0 
0 0 0 0 0 0 0 0 0 
0 0 0 0 0 0 0 0 0 
0 0 0 0 0 0 0 0 0 
0 0 0 0 0 0 0 0 0 
0 0 0 0 0 0 0 0 0 
0 0 0 7.7107e-10 0 0 0 0 0 
0 0 0 0 0 0 0 0 0 
0 0 0 0 0 0 0 0 0 
0 0 0 0 0 0 0 0 0 
0 0 0 0 0 0 0 0 0 
0 0 0 0 5.40172e-10 0 0 0 0 
0 0 0 0 0 0 0 0 0 
0 0 0 0 6.6476e-10 9.22718e-10 0 0 0 
0 2.37113e-10 0 0 0 0 0 5.80457e-10 0 
0 0 0 0 0 7.27471e-10 0 0 0 
0 0 0 0 0 0 0 0 0 
0 0 0 0 0 0 0 0 0 
4.59995e-10 0 5.7458e-10 0 0 0 0 0 0 
0 4.66607e-10 4.70806e-11 0 0 0 0 0 0 
0 0 0 0 0 0 0 0 0 
0 0 0 1.03599e-09 0 0 0 0 0 
0 0 0 0 0 0 0 0 0 
0 0 0 0 0 0 0 8.95284e-11 0 
0 0 0 0 0 0 0 0 0 
0 0 0 1.06733e-10 0 0 0 0 0 
0 0 0 0 0 0 0 0 0 
0 0 0 0 0 0 0 0 0 
0 0 0 0 1.43889e-09 0 0 0 0 
0 0 0 0 0 0 0 8.78678e-10 0 
0 0 1.03989e-09 0 0 0 0 0 0 
2.83138e-08 0 0 0 0 0 0 4.49511e-10 0 
0 0 0 1.27485e-09 0 0 0 0 0 
1.50952e-08 0 0 0 0 0 0 0 0 
0 0 0 0 0 0 0 0 0 
0 0 0 4.42501e-10 0 0 0 0 8.32195e-10 
0 0 0 0 0 0 0 0 0 
0 0 0 0 0 0 0 0 0 
0 0 0 0 0 0 0 0 0 
0 0 0 0 0 4.79002e-10 0 0 0 
0 0 0 0 0 0 0 0 0 
0 0 0 6.06013e-10 0 0 0 0 0 
0 0 0 0 0 0 0 0 0 
0 0 0 0 0 0 0 0 0 
0 0 0 0 0 0 0 0 0 
0 0 0 0 0 0 0 0 0 
0 0 0 0 0 0 0 0 0 
0 0 0 0 0 0 0 0 0 
0 0 0 0 0 8.6828e-10 0 0 0 
0 0 0 0 0 0 0 0 0 
0 0 0 0 0 6.89937e-10 0 0 0 
0 0 0 0 0 8.08075e-10 0 0 0 
0 0 0 0 0 0 0 0 0 
0 0 0 0 0 0 0 0 0 
0 0 0 0 0 0 0 9.83999e-10 0 
0 0 0 7.43189e-10 0 0 0 0 0 
0 0 0 0 0 0 0 0 0 
0 0 0 0 0 0 0 0 0 
0 0 0 0 0 0 0 0 1.2884e-09 
0 0 0 0 0 0 0 0 0 
0 0 5.62618e-10 0 0 0 0 0 0 
0 0 0 0 0 0 0 0 0 
2.16668e-10 0 0 0 0 0 0 0 0 
0 8.23551e-10 0 0 0 5.52865e-10 0 0 0 
0 0 0 0 0 0 0 0 0 
6.43148e-10 0 0 0 0 1.25516e-09 0 0 0 
0 0 0 0 0 0 0 0 0 
0 0 0 0 0 0 0 0 0 
0 0 0 0 0 0 0 0 0 
0 0 0 0 0 0 0 0 0 
0 0 0 0 0 0 0 0 0 
0 0 0 0 0 0 0 0 0 
0 1.14148e-09 0 0 0 0 0 0 0 
0 0 0 0 0 0 0 6.37026e-10 0 
0 1.66477e-10 0 0 0 0 0 0 9.53619e-10 
0 0 0 0 0 0 0 0 0 
0 0 0 0 0 0 0 0 0 
0 0 0 0 0 0 0 0 0 
0 0 0 0 0 0 0 0 9.44585e-10 
0 0 0 0 0 0 0 0 0 
0 0 1.16726e-09 0 0 0 0 0 0 
0 0 0 0 0 0 0 0 0 
0 0 0 0 0 0 0 0 0 
1.29722e-08 0 0 0 0 0 0 0 0 
0 0 0 0 0 0 0 0 0 
0 0 0 0 0 0 0 0 0 
0 0 0 0 0 0 0 0 0 
0 0 0 0 0 0 0 0 0 
0 0 0 0 0 0 0 0 0 
0 0 0 0 0 0 0 0 0 
0 0 1.21378e-09 0 0 0 0 0 0 
0 0 0 0 0 0 0 0 0 
0 0 0 0 0 0 0 0 0 
0 0 0 0 0 0 0 0 0 
0 0 0 0 0 0 0 0 0 
0 0 0 0 0 0 0 0 4.49369e-10 
0 0 1.15594e-09 0 0 0 0 0 0 
0 0 0 0 0 0 0 0 0 
0 0 0 0 0 0 0 0 0 
0 0 0 0 0 0 0 0 0 
0 0 0 0 0 0 0 0 0 
0 0 0 0 0 0 0 0 0 
0 0 0 0 0 0 0 0 0 
8.76266e-10 0 0 0 0 0 0 0 0 
0 0 7.76701e-10 0 0 0 0 0 0 
0 7.53207e-10 0 0 0 0 0 0 0 
0 0 0 0 0 0 0 0 0 
0 0 0 0 0 0 0 1.38244e-09 0 
0 2.16015e-08 7.71443e-10 0 0 7.52021e-10 0 0 0 
0 0 0 0 0 0 0 0 0 
0 0 0 0 0 0 0 
feature_4 1 2500 float
0 0 0 0 0 0 0 0 0 
0 1.17598e-09 0 1.34965e-09 0 0 0 0 0 
0 0 0 6.62801e-10 0 0 1.20216e-09 0 0 
0 0 0 0 0 0 0 0 0 
0 0 0 0 0 0 0 0 0 
0 0 0 0 0 0 2.08772e-10 0 0 
0 0 0 0 0 0 0 0 0 
0 0 0 0 0 0 0 0 0 
0 0 0 4.52009e-10 0 0 0 0 0 
0 0 0 0 0 0 0 0 0 
0 0 0 0 0 0 0 0 0 
0 0 1.36195e-09 0 0 0 0 0 0 
0 0 0 0 0 0 0 0 0 
0 0 0 0 0 0 0 0 0 
0 4.33896e-10 0 0 0 0 0 0 4.85578e-10 
0 0 0 0 0 0 0 0 0 
0 5.37117e-10 0 0 0 1.13768e-09 9.15012e-10 0 0 
0 0 0 0 0 0 0 0 0 
0 0 0 0 0 0 0 0 0 
0 0 0 0 0 0 0 0 0 
0 0 0 0 0 2.68356e-10 0 0 0 
0 0 0 0 0 0 0 0 5.26324e-10 
0 0 0 0 0 0 0 0 0 
0 0 0 0 0 0 0 0 0 
0 0 0 0 0 0 0 0 0 
0 0 0 0 0 0 0 0 0 
0 0 0 0 0 1.60989e-10 0 0 0 
9.1088e-10 0 0 0 0 0 0 0 0 
0 0 0 0 0 0 0 0 0 
0 0 1.56515e-11 0 0 0 0 0 0 
0 0 0 0 0 0 0 0 0 
0 0 1.00413e-09 0 0 1.70001e-10 0 0 0 
0 0 0 0 0 0 0 0 0 
0 0 0 0 0 0 0 0 0 
0 0 0 0 0 0 0 0 0 
0 0 0 0 0 0 0 1.07166e-09 0 
0 0 0 0 0 0 0 0 0 
0 0 0 0 0 0 0 0 0 
0 0 8.83784e-10 0 0 0 0 0 0 
0 0 0 0 0 0 0 0 0 
0 0 0 0 0 0 0 0 0 
0 0 0 0 0 0 0 0 0 
0 0 0 0 0 0 0 0 0 
0 5.57003e-10 0 0 0 0 0 0 0 
0 0 0 0 0 0 5.36524e-10 0 0 
0 0 0 0 0 0 0 0 0 
0 0 0 0 0 0 0 0 0 
0 0 0 0 0 0 0 0 6.35374e-10 
0 0 0 0 1.04026e-09 0 0 0 0 
0 0 0 0 0 0 0 0 0 
0 0 0 0 0 0 0 0 0 
0 0 0 6.3044e-10 0 0 0 0 0 
0 0 0 0 0 0 0 3.47491e-11 0 
0 0 0 4.60318e-10 0 0 0 0 0 
0 0 0 0 0 0 0 0 0 
0 0 0 0 0 0 0 0 0 
0 0 0 0 0 2.29701e-10 0 0 0 
0 0 0 0 0 0 0 0 0 
0 1.10087e-09 0 0 0 0 0 0 0 
0 0 0 8.00064e-10 0 0 0 0 0 
0 0 0 0 0 0 0 0 0 
0 0 0 0 0 0 0 0 0 
0 0 0 0 0 0 9.26388e-10 0 0 
0 0 0 0 0 0 0 0 0 
0 0 0 0 0 0 0 0 0 
0 0 0 0 0 0 0 0 0 
0 0 8.70642e-10 0 0 0 0 0 0 
0 0 5.55563e-10 0 0 0 0 0 0 
0 0 0 0 0 0 0 0 0 
0 0 0 0 0 0 0 0 0 
0 0 7.2335e-10 0 0 0 0 0 0 
0 0 0 0 0 0 0 0 0 
0 0 0 0 0 0 0 0 0 
0 0 0 0 0 0 0 0 0 
0 0 0 0 0 0 0 0 0 
0 0 0 0 0 0 0 0 0 
0 0 0 0 0 0 0 0 0 
0 0 0 0 0 0 0 0 0 
0 0 0 0 0 0 0 0 0 
0 0 0 0 0 0 0 0 0 
3.70354e-10 0 0 0 0 0 0 0 0 
0 0 0 0 0 0 0 7.77362e-10 3.82258e-10 
0 0 0 0 0 0 0 0 0 
0 0 0 0 0 0 0 0 0 
0 0 0 0 0 0 0 0 0 
0 0 0 0 0 0 0 0 0 
0 0 0 0 0 0 0 0 0 
0 0 0 0 0 0 0 0 0 
0 0 0 0 0 0 0 0 0 
0 0 0 0 0 0 0 0 0 
0 0 3.57726e-10 1.13439e-09 0 0 0 0 0 
0 0 0 0 0 0 0 0 0 
0 0 0 0 0 0 0 0 0 
0 0 0 0 0 0 0 0 0 
0 0 0 0 0 0 0 0 0 
0 0 0 0 0 0 0 0 0 
0 0 0 0 0 0 0 0 0 
0 0 0 0 0 0 0 0 0 
4.75342e-10 0 0 0 0 0 0 0 1.21218e-09 
0 0 0 0 0 0 0 0 0 
0 0 0 0 0 0 1.2218e-09 0 0 
0 0 0 0 0 0 0 0 0 
0 7.53872e-10 0 0 0 0 0 0 0 
1.28624e-09 0 0 0 0 0 0 0 0 
0 0 0 0 0 0 0 0 0 
0 0 0 0 0 0 0 0 0 
0 0 0 0 0 0 0 0 0 
0 0 1.03132e-09 0 0 0 0 0 8.00281e-10 
0 0 0 0 0 0 0 0 0 
0 0 2.30546e-10 0 0 0 0 0 0 
0 0 0 0 0 0 0 0 0 
0 0 0 8.88711e-10 0 0 0 0 0 
0 0 0 0 0 0 0 0 0 
0 0 0 0 0 0 0 0 0 
0 0 0 0 0 0 0 0 0 
0 0 0 0 0 0 0 0 0 
0 0 0 0 0 0 0 0 0 
0 0 0 0 0 0 0 0 0 
0 0 0 0 0 0 0 0 0 
0 0 0 0 0 0 7.48095e-10 9.47836e-10 0 
0 0 0 0 0 0 0 0 0 
0 0 0 0 0 0 0 8.34472e-10 0 
0 0 0 0 0 0 0 0 0 
0 0 0 0 0 0 0 0 0 
0 0 0 0 0 0 0 0 0 
0 0 0 0 5.89663e-10 0 0 0 0 
0 0 0 0 0 0 0 0 0 
0 0 0 0 0 0 0 0 0 
0 0 0 0 0 0 0 0 0 
0 0 0 0 0 0 0 0 0 
0 0 0 0 0 0 0 0 0 
0 0 0 0 0 0 0 0 0 
0 0 0 4.4642e-10 0 0 0 0 0 
0 0 0 0 0 0 0 0 0 
0 0 0 0 0 0 0 0 0 
0 0 0 0 0 0 0 5.46301e-10 0 
0 0 0 0 0 0 0 0 0 
0 0 0 0 0 0 0 0 0 
0 0 0 0 0 0 0 0 0 
0 0 0 0 0 0 0 0 0 
0 1.58012e-09 0 0 0 4.02164e-10 0 0 0 
0 0 0 0 0 0 0 0 0 
0 0 0 0 0 0 0 0 0 
0 8.17497e-10 0 0 0 0 0 1.13076e-09 0 
0 0 0 0 0 0 0 0 0 
0 0 0 0 0 0 0 0 0 
0 0 0 0 0 0 0 0 0 
0 0 0 0 0 0 5.54948e-10 0 0 
0 0 0 0 0 0 0 0 0 
0 0 0 0 0 0 0 0 1.06191e-09 
0 0 0 0 0 0 0 0 0 
0 0 0 1.47615e-09 0 0 0 0 0 
0 0 0 0 0 0 0 0 0 
0 0 0 0 0 0 0 0 0 
0 0 0 0 0 0 1.18315e-09 0 0 
0 0 0 0 0 0 0 2.99412e-10 0 
0 0 0 0 0 0 0 0 0 
0 0 0 1.20428e-09 6.82203e-10 0 0 0 0 
0 0 0 0 0 0 0 0 0 
0 0 0 0 0 0 0 0 0 
0 0 0 0 0 0 0 0 0 
0 0 0 0 0 0 0 0 0 
0 5.42274e-10 0 0 0 0 0 0 0 
0 0 0 0 0 0 0 0 0 
0 0 0 0 0 0 0 0 0 
0 0 0 0 0 0 0 0 0 
0 0 0 0 0 0 0 0 0 
0 0 0 0 0 0 0 0 0 
0 0 0 0 0 0 0 0 0 
0 0 0 0 0 0 0 0 2.78611e-10 
0 0 0 0 0 0 0 0 0 
0 5.35238e-10 0 0 0 0 8.57648e-10 0 0 
0 0 0 0 0 0 0 0 0 
0 0 0 0 0 0 0 0 0 
0 0 0 0 0 0 0 3.7862e-10 0 
0 1.20473e-09 0 0 0 0 7.1039e-10 0 0 
6.11895e-10 0 0 0 0 0 0 8.77856e-10 0 
0 0 0 0 0 0 0 0 0 
0 0 0 0 0 0 0 0 0 
0 0 0 0 0 0 0 0 0 
0 5.21247e-10 0 0 0 0 4.25595e-10 0 0 
0 0 0 0 0 0 0 0 0 
0 0 0 0 0 0 0 0 0 
0 0 0 0 0 0 0 0 0 
0 0 0 0 0 0 0 0 0 
0 0 0 0 0 0 0 0 0 
3.41794e-10 0 0 0 0 0 0 0 0 
0 0 0 0 0 0 0 0 0 
0 0 0 0 0 0 0 7.24732e-10 0 
0 0 0 0 0 0 0 0 0 
0 0 0 0 0 0 0 0 0 
0 0 0 0 0 1.00256e-09 0 0 0 
0 0 0 0 0 0 0 0 0 
0 0 0 0 1.02309e-09 0 6.84839e-10 0 0 
0 0 0 0 0 0 0 0 0 
0 0 0 0 0 0 0 0 0 
0 0 0 0 0 0 0 0 0 
0 0 0 0 0 0 0 0 0 
0 0 0 0 0 0 0 0 0 
0 0 0 0 0 0 0 0 0 
0 0 0 0 0 0 0 0 0 
0 0 0 0 0 0 0 0 0 
7.86478e-10 0 0 0 0 0 0 0 0 
0 0 0 2.28942e-10 0 0 0 0 0 
0 0 3.18808e-10 0 0 0 0 0 0 
0 0 0 0 0 0 0 0 0 
0 0 0 0 0 0 0 0 0 
0 0 0 0 0 0 0 0 0 
0 0 0 0 0 0 0 0 0 
9.48734e-10 0 5.3975e-10 5.32509e-10 0 0 0 0 0 
0 0 0 0 0 0 0 0 0 
0 0 0 0 0 0 0 0 0 
0 0 0 6.48898e-10 0 0 0 0 0 
0 0 0 0 0 0 1.19756e-09 0 0 
0 0 0 0 0 0 0 0 0 
0 0 0 0 0 0 0 0 0 
0 0 0 0 0 0 0 0 0 
0 0 0 0 0 0 0 0 0 
0 0 0 0 0 0 0 0 0 
0 0 0 0 0 0 0 0 0 
0 0 0 0 0 0 0 0 0 
0 0 0 0 0 0 0 0 0 
0 0 0 0 0 0 0 0 0 
0 0 0 0 0 0 0 0 0 
0 0 9.53111e-10 0 0 0 0 0 0 
0 0 0 0 0 0 0 0 0 
0 0 0 0 0 0 0 0 0 
0 0 0 0 0 0 0 0 0 
7.82862e-10 0 0 0 0 0 0 1.13251e-09 0 
0 0 0 0 0 0 0 0 0 
0 0 0 0 0 0 0 0 0 
5.8289e-10 0 0 0 8.3897e-10 0 0 0 0 
0 0 0 0 0 0 0 0 0 
0 0 0 0 0 0 0 0 0 
0 0 0 0 0 0 0 0 0 
0 0 0 7.70759e-10 0 0 1.35176e-09 0 0 
0 0 0 2.46231e-10 0 0 0 0 0 
0 0 0 0 0 0 0 0 0 
0 0 0 0 0 0 0 0 0 
0 0 0 0 0 0 0 1.0133e-09 0 
0 0 0 4.60968e-10 0 0 0 0 0 
0 0 0 0 0 8.28976e-10 0 0 0 
0 0 0 0 0 0 0 0 0 
0 0 0 0 0 0 0 1.4499e-09 0 
0 0 0 0 0 0 0 0 0 
0 0 0 0 0 0 0 0 0 
0 0 1.17009e-09 0 0 0 0 0 0 
0 0 0 0 0 0 0 0 0 
0 0 0 0 0 0 0 0 0 
0 0 7.66704e-10 0 0 0 0 0 0 
0 0 0 0 0 0 0 0 0 
0 0 0 0 0 0 8.05173e-10 0 0 
0 0 0 0 0 5.54376e-10 0 0 0 
6.52552e-10 0 0 0 0 0 0 0 0 
0 0 0 0 8.47372e-10 0 0 0 0 
0 0 0 0 0 0 0 0 0 
0 0 0 0 0 0 0 0 0 
0 0 0 0 0 0 0 0 0 
0 5.48317e-10 0 4.75669e-10 0 0 0 0 0 
0 0 0 8.06029e-10 0 0 0 0 0 
0 0 0 0 0 0 0 0 0 
0 0 0 0 0 0 0 0 0 
0 0 8.14641e-10 0 0 0 0 0 0 
0 0 0 0 0 0 0 0 0 
0 0 0 0 0 0 0 0 0 
0 0 4.78539e-10 0 0 0 0 0 0 
0 0 0 0 0 0 0 0 0 
0 0 0 0 0 0 8.24429e-10 0 0 
0 0 0 0 0 0 0 1.23989e-09 0 
0 0 0 0 0 0 0 0 0 
0 0 0 0 0 0 0 0 0 
0 0 0 0 0 0 0 0 0 
0 0 0 0 0 3.19844e-10 0 0 0 
0 1.1303e-09 0 0 0 0 0 0 0 
0 0 0 0 0 0 0 0 0 
0 0 0 0 0 8.71442e-10 0 0 0 
0 0 0 0 0 0 0 0 0 
0 0 0 0 0 0 0 
feature_5 1 2500 float
0 0 0 0 0 0 0 0 0 
0 0 0 0 0 0 0 0 0 
0 0 0 0 0 0 0 0 0 
0 0 0 0 0 0 7.68082e-10 0 0 
2.94609e-10 0 0 0 0 5.32026e-10 0 0 0 
0 0 0 0 0 0 0 0 0 
0 1.34594e-09 0 0 0 0 0 0 0 
0 0 0 0 0 0 0 0 0 
0 0 0 0 0 0 0 0 0 
0 0 0 0 0 0 0 1.4892e-09 0 
0 0 1.22669e-09 0 0 0 0 0 0 
3.28063e-08 0 1.21535e-09 0 0 0 0 0 0 
0 0 2.9771e-10 0 6.96151e-10 0 0 0 0 
0 0 0 0 0 0 0 0 0 
0 0 0 0 0 0 0 0 0 
0 0 0 0 0 0 8.67807e-10 0 0 
0 0 0 0 0 0 0 0 1.07347e-09 
0 0 0 0 0 0 3.83064e-10 0 0 
0 0 0 0 0 0 0 0 0 
0 0 0 0 0 0 0 0 0 
0 0 0 0 0 0 5.04368e-10 0 0 
0 0 0 3.05591e-08 0 0 2.50957e-10 0 2.49118e-08 
0 0 5.52241e-10 6.77449e-10 0 0 0 0 0 
0 0 0 0 0 0 0 0 0 
0 0 1.39443e-08 0 0 0 0 0 0 
0 0 0 0 0 0 0 0 1.48878e-09 
0 0 0 0 0 0 0 0 0 
0 0 1.4843e-08 0 0 0 0 0 0 
0 0 0 0 0 0 0 1.02666e-09 0 
0 0 0 0 0 0 0 0 0 
0 0 0 0 0 0 0 0 0 
0 0 0 0 0 0 0 2.24539e-10 0 
0 0 0 0 9.37039e-10 0 0 0 0 
0 0 0 8.40208e-11 0 0 0 0 0 
0 0 0 0 0 0 0 0 0 
0 0 0 0 0 0 0 0 0 
0 0 0 0 0 0 0 0 0 
0 0 0 0 0 0 0 1.39396e-08 0 
0 0 0 7.84926e-10 0 0 0 0 0 
0 0 0 0 0 0 0 0 0 
0 4.76e-10 0 0 0 0 0 0 0 
7.61261e-10 0 0 0 0 0 0 0 0 
0 0 0 0 0 0 0 0 0 
1.73097e-10 0 0 0 8.93298e-10 0 0 0 0 
0 0 0 0 0 0 1.86678e-08 0 0 
0 0 0 1.27438e-07 0 0 0 0 3.91133e-09 
0 0 0 1.12015e-09 0 7.30775e-10 0 0 0 
0 0 0 0 0 0 0 0 9.99531e-10 
0 0 0 0 0 0 0 0 0 
0 0 0 0 0 0 0 0 0 
0 0 0 0 0 0 0 0 0 
0 9.82741e-10 0 0 8.53106e-10 0 0 0 0 
0 0 0 0 0 0 0 0 0 
0 0 0 0 0 0 0 0 0 
0 0 0 0 0 0 0 0 0 
7.63418e-10 0 0 1.16654e-09 0 0 0 0 0 
2.37762e-08 0 0 0 0 0 0 0 0 
0 0 0 0 0 0 0 1.56837e-09 0 
0 1.01613e-09 0 0 0 0 0 0 6.56375e-10 
0 7.04738e-10 0 0 0 0 0 6.72365e-10 1.01931e-10 
0 0 0 0 0 0 0 1.92021e-08 0 