# vtk DataFile Version 5.1
vtk output
ASCII
DATASET STRUCTURED_POINTS
DIMENSIONS 50 50 1
SPACING 1 1 1
ORIGIN 0 0 0
POINT_DATA 2500
FIELD FieldData 6
feature_1 1 2500 float
0 0 0 0 1.34822e-09 1.15539e-10 0 0 0 
0 0 0 0 0 0 0 0 0 
0 0 0 0 0 0 1.44243e-09 0 0 
0 0 0 0 0 0 0 0 0 
0 0 0 0 0 0 0 0 8.79353e-10 
0 0 0 0 0 0 0 0 0 
0 0 1.26059e-09 0 1.82822e-10 0 0 0 0 
0 0 0 0 0 0 2.82419e-10 0 0 
0 0 0 0 0 0 0 0 0 
0 0 0 0 0 0 0 0 0 
6.84855e-10 0 0 8.83222e-10 0 0 0 1.18356e-09 1.14965e-09 
0 5.62729e-10 0 0 0 0 0 0 0 
0 0 0 0 0 0 0 0 0 
0 0 0 0 0 0 0 0 0 
0 1.92987e-10 0 0 0 0 0 0 0 
0 0 0 0 0 0 0 0 0 
0 8.2956e-10 0 0 0 0 0 0 0 
0 0 1.27594e-09 0 0 0 0 0 0 
0 0 0 0 0 0 0 0 0 
0 0 0 0 0 0 0 0 0 
0 0 0 0 0 0 0 0 0 
0 0 0 0 0 0 0 4.34905e-10 0 
0 0 0 0 0 0 0 0 0 
0 0 0 0 0 0 0 0 0 
0 0 0 0 4.66494e-10 0 0 8.23622e-10 8.19018e-10 
0 0 0 0 0 0 0 0 0 
0 0 0 0 0 0 0 0 0 
0 0 0 0 0 0 0 0 1.01994e-09 
0 0 0 0 0 0 0 0 0 
0 0 0 0 0 0 0 0 0 
0 0 0 0 0 0 0 0 0 
0 0 0 1.18326e-09 0 0 0 0 0 
0 0 0 0 0 0 0 0 0 
0 0 0 0 0 0 0 0 0 
0 1.19965e-09 0 0 1.4961e-10 0 0 0 0 
0 0 0 3.73502e-10 0 0 0 0 0 
0 0 0 0 0 0 0 0 0 
0 0 0 0 0 3.15543e-10 0 0 0 
0 0 0 0 0 0 0 0 0 
0 0 0 0 0 0 0 1.20302e-09 0 
0 0 0 6.07827e-10 0 0 0 0 2.62791e-08 
1.44956e-09 0 0 0 0 0 0 0 6.77243e-06 
5.08502e-08 0 0 0 0 0 0 0 0 
0 0 0 0 0 0 0 0 0 
0 0 0 0 0 0 0 0 0 
0 0 0 6.78074e-06 0 0 0 0 0 
0 0 0 0 6.79165e-06 0 0 0 0 
0 0 0 8.56222e-11 0 0 0 0 0 
0 1.10997e-09 0 0 0 0 0 0 0 
0 0 0 0 0 0 0 0 0 
0 6.36938e-10 0 0 0 0 0 0 5.99016e-10 
0 0 0 0 0 0 0 0 2.9663e-08 
0 0 0 0 0 0 0 0 0 
0 0 2.80057e-09 0 0 0 0 0 0 
0 0 0 0 0 0 0 0 0 
0 0 0 0 0 0 0 0 0 
8.1787e-10 0 0 0 0 0 0 0 0 
0 0 0 7.18684e-06 0 1.29174e-09 0 0 0 
0 0 0 0 0 0 0 0 0 
0 0 3.12118e-08 0 1.65304e-09 0 0 0 0 
6.87282e-06 0 0 0 0 8.51905e-10 0 0 0 
0 0 0 0 8.07475e-10 0 0 0 0 
0 0 7.19116e-06 0 0 7.02487e-06 0 7.35835e-06 1.32756e-09 
0 0 0 6.47294e-10 0 0 0 0 0 
0 0 0 0 0 0 8.09842e-06 8.39589e-06 0 
0 3.81506e-08 6.88853e-06 0 0 3.26721e-08 0 0 0 
0 0 0 0 0 0 0 0 0 
0 0 0 0 0 6.08263e-08 7.16901e-06 0 0 
0 0 0 0 0 0 0 0 0 
0 0 0 0 6.78789e-10 0 0 0 0 
0 1.62236e-09 0 0 7.25472e-06 0 0 3.52261e-08 0 
6.93536e-06 0 0 0 0 0 0 0 0 
0 0 0 8.68095e-10 0 0 0 0 0 
0 1.55782e-08 0 0 0 0 0 0 0 
0 0 0 0 0 0 0 0 6.80414e-06 
0 0 6.811e-06 0 0 0 0 0 0 
0 1.53508e-09 0 0 0 0 0 0 0 
3.37032e-10 0 1.16744e-09 0 0 0 0 0 0 
0 0 0 0 0 8.17025e-10 0 0 0 
0 0 0 0 0 0 0 0 0 
0 4.81709e-10 0 0 2.21697e-08 0 0 5.36189e-08 0 
0 0 0 0 0 0 0 0 0 
0 0 0 0 0 0 0 0 0 
0 0 0 0 0 0 0 0 0 
0 0 6.60044e-10 0 0 6.91591e-06 0 2.59081e-07 7.38908e-06 
0 0 0 0 0 0 0 0 0 
0 0 0 0 0 0 0 6.86979e-06 6.59123e-08 
0 0 0 0 0 0 0 0 0 
0 0 0 0 0 0 0 0 1.81085e-09 
0 0 0 0 0 0 0 0 0 
0 4.66518e-08 0 7.64036e-06 0 0 0 0 0 
1.06554e-09 1.64144e-08 6.79952e-06 3.13254e-08 0 0 0 5.08059e-10 0 
0 0 0 0 5.74133e-08 0 0 0 0 
0 0 0 0 0 0 0 0 0 
0 0 0 0 0 0 0 0 0 
0 0 0 5.93202e-10 1.66587e-10 0 0 0 0 
7.45432e-06 0 0 7.2564e-09 0 1.63955e-09 0 0 0 
0 0 2.22423e-08 0 0 0 8.66571e-09 0 0 
0 0 0 0 6.12731e-07 0 0 0 0 
1.23772e-09 0 6.42178e-10 5.83345e-10 0 0 0 1.13011e-09 0 
7.04727e-10 0 0 1.73449e-09 0 0 0 0 0 
0 0 6.83913e-06 0 0 0 3.88894e-08 0 0 
0 4.2467e-10 0 0 0 0 0 0 6.9786e-06 
0 0 0 0 0 8.10907e-06 0 0 7.5008e-06 
0 7.5604e-06 0 0 0 0 8.32824e-10 0 0 
0 0 0 0 0 0 0 0 0 
0 0 0 0 0 0 0 0 0 
0 0 7.07907e-06 0 7.22912e-06 7.34619e-08 8.60312e-06 9.3054e-06 0 
0 0 0 4.95011e-08 0 0 0 0 0 
0 5.65101e-08 0 0 0 7.99571e-06 0 0 0 
0 0 0 0 0 0 0 0 0 
0 0 0 9.32758e-10 0 0 0 0 0 
0 0 0 0 0 0 0 0 0 
0 0 0 8.41436e-06 4.21306e-08 1.2902e-09 0 0 0 
0 0 0 0 0 0 0 0 7.41799e-06 
0 0 7.43958e-06 0 0 0 0 0 0 
0 0 0 0 0 0 0 0 0 
0 0 0 0 0 0 0 0 0 
0 0 0 0 0 0 0 0 3.1058e-08 
0 0 0 0 0 0 0 0 0 
0 7.09015e-06 0 7.53819e-06 0 0 0 2.93513e-08 0 
0 0 0 0 0 0 0 0 0 
0 0 0 0 0 0 0 0 2.52741e-08 
8.01387e-06 8.01962e-06 0 0 4.11507e-10 0 0 6.78872e-06 0 
0 0 0 0 1.97881e-08 0 0 0 0 
4.98961e-11 0 0 0 0 0 0 0 7.00692e-08 
0 0 0 0 0 0 0 0 0 
0 0 0 0 0 0 0 0 0 
0 0 0 0 1.66038e-08 0 0 0 0 
0 0 0 4.38881e-08 0 0 3.26379e-08 6.86342e-06 0 
0 0 0 0 0 0 7.18398e-06 0 0 
0 0 0 7.13933e-06 0 7.12195e-06 0 0 6.83516e-06 
2.72284e-08 0 0 0 9.99579e-10 0 0 0 0 
0 0 0 0 0 0 0 0 0 
0 0 3.38925e-10 0 0 0 0 0 0 
0 0 0 0 0 0 0 0 0 
0 0 0 7.20089e-06 0 0 0 0 0 
0 1.42133e-08 0 0 0 0 0 0 0 
0 0 0 0 0 0 0 0 0 
0 0 0 0 0 0 0 0 0 
0 0 0 0 0 0 0 0 0 
6.9545e-06 0 0 0 0 8.21198e-06 0 0 0 
0 0 0 0 0 0 0 1.07632e-08 0 
0 0 0 0 0 0 4.49414e-10 0 0 
0 0 0 0 0 0 0 0 0 
0 0 0 0 0 0 0 0 0 
0 0 0 0 1.45589e-09 0 0 2.22585e-08 7.53123e-06 
3.14705e-06 8.61501e-06 0 0 0 0 0 0 0 
0 8.74827e-10 0 0 0 0 0 0 0 
3.27449e-08 0 0 0 0 0 0 0 0 
0 0 0 0 0 0 0 0 0 
0 0 0 0 0 0 0 0 0 
0 0 6.97204e-06 0 0 7.64589e-06 0 0 0 
6.90787e-06 0 0 0 1.90353e-08 0 0 0 0 
0 0 0 0 6.76918e-06 3.33232e-08 0 0 0 
0 0 0 5.62922e-10 0 0 0 0 0 
0 0 0 0 0 0 0 0 6.72959e-08 
0 0 0 0 0 0 0 0 0 
0 0 0 0 0 0 0 7.05556e-06 0 
6.70335e-06 0 0 0 6.79703e-06 0 1.3479e-09 0 0 
0 0 0 0 0 0 0 0 0 
0 0 0 0 0 0 0 0 0 
6.88088e-06 0 0 0 6.87716e-06 0 0 0 0 
0 0 0 0 0 0 0 0 0 
0 0 0 2.54271e-08 0 0 0 0 0 
0 0 1.14373e-09 5.32179e-10 0 0 0 0 0 
0 0 0 0 0 0 0 0 0 
0 0 0 0 0 0 0 8.17897e-06 0 
0 0 0 3.61034e-09 0 0 0 0 0 
0 0 0 0 0 0 0 0 0 
0 0 2.90656e-08 6.81579e-06 1.3462e-08 0 0 0 0 
0 0 0 0 0 1.03238e-10 0 0 0 
0 0 0 0 0 0 0 0 0 
0 0 0 8.05754e-06 0 0 0 0 0 
0 0 0 6.7947e-06 1.63847e-09 0 0 0 0 
0 0 0 0 0 0 0 0 0 
0 0 0 0 0 0 0 0 0 
0 0 0 0 0 0 0 0 0 
0 0 0 0 0 0 0 0 0 
0 8.9263e-10 0 0 0 0 0 1.69432e-09 0 
0 0 1.15967e-09 0 0 0 0 0 0 
4.84507e-08 0 0 0 0 0 0 0 1.69078e-09 
7.23286e-06 0 0 0 0 0 0 0 0 
0 0 1.25245e-09 0 0 0 0 0 0 
0 0 0 0 0 0 0 6.78304e-06 9.88031e-10 
1.16003e-08 0 3.00451e-10 0 0 0 0 0 0 
0 0 0 0 3.14499e-08 6.78067e-06 4.3603e-08 0 0 
0 0 0 0 7.1868e-06 0 1.05519e-07 6.88714e-06 0 
0 0 0 0 0 0 0 0 0 
0 0 0 0 0 0 0 0 0 
0 0 0 0 0 0 0 4.04625e-08 6.88303e-06 
4.05814e-08 0 0 0 0 0 3.6456e-08 0 0 
0 0 0 0 0 0 0 2.92319e-10 0 
3.56708e-10 0 1.62899e-08 0 0 0 0 0 0 
0 0 0 0 0 0 0 0 0 
9.66654e-10 0 0 6.77697e-06 0 0 0 0 0 
0 0 0 0 0 0 0 0 0 
0 0 6.96492e-06 4.62509e-08 0 0 0 0 0 
0 1.56103e-09 0 0 0 0 0 0 0 
0 0 0 0 0 0 0 0 0 
0 0 0 0 0 0 0 0 0 
0 0 0 0 0 1.23798e-10 0 8.03109e-06 5.57989e-10 
0 8.10317e-10 3.0195e-10 0 8.02677e-06 8.1043e-06 0 0 0 
6.98877e-06 0 0 0 0 0 0 0 0 
0 0 0 0 0 0 0 0 0 
0 0 0 0 0 0 0 0 0 
0 0 1.15521e-09 0 0 0 6.09411e-10 0 0 
9.86837e-10 0 0 0 0 0 0 7.2939e-10 0 
0 0 0 0 3.8112e-08 0 1.05059e-09 0 0 
0 0 0 0 1.06911e-09 1.64311e-09 0 0 0 
0 0 0 0 0 0 0 0 0 
0 0 0 0 0 0 0 0 0 
0 0 1.75885e-08 0 0 0 4.2772e-10 0 0 
0 0 0 0 0 0 0 0 0 
8.44034e-06 0 8.34409e-08 7.21693e-06 0 0 0 0 0 
0 0 0 1.02654e-09 0 0 0 0 0 
0 0 0 0 0 0 0 0 0 
0 0 0 0 0 2.22207e-08 6.80295e-06 0 0 
7.00171e-06 0 0 0 0 0 0 0 0 
0 1.40748e-09 0 0 7.28452e-10 8.84689e-06 0 7.48922e-06 0 
0 0 0 0 7.76065e-10 0 0 0 1.10999e-08 
2.79599e-08 0 0 0 1.48977e-08 0 0 0 0 
0 0 3.07175e-10 0 0 6.57909e-10 0 0 9.3041e-10 
0 0 0 0 0 5.46621e-08 0 0 0 
0 0 0 6.3503e-10 0 0 0 6.84146e-06 0 
0 0 0 0 0 0 0 0 0 
0 8.17712e-06 0 0 0 6.91105e-06 0 0 6.88265e-06 
1.33039e-09 0 0 0 6.62506e-10 9.10468e-10 0 9.32106e-10 0 
0 0 0 0 1.74333e-09 1.25395e-09 0 0 0 
2.80331e-08 6.97883e-06 0 0 0 0 0 0 0 
0 0 0 0 0 0 0 0 0 
3.54652e-08 0 0 0 7.05571e-06 0 8.42098e-06 0 7.14845e-06 
0 0 0 0 0 0 0 0 0 
0 0 0 0 0 0 0 0 0 
0 0 0 0 0 0 0 0 0 
0 0 0 0 0 1.21182e-09 0 0 0 
0 0 0 0 0 6.79272e-06 2.35121e-08 0 0 
6.27984e-08 0 4.333e-08 0 0 0 0 3.10599e-08 6.8718e-06 
0 0 0 0 0 0 1.04145e-09 0 0 
0 0 0 0 0 0 0 0 0 
0 0 0 0 4.07463e-10 0 0 0 0 
0 0 0 0 6.17749e-10 0 0 0 0 
0 0 0 0 0 0 0 0 0 
0 0 0 0 0 0 0 0 0 
0 0 0 0 0 0 0 0 0 
0 0 0 0 0 0 0 0 0 
0 0 0 0 0 0 0 0 0 
0 0 0 0 0 0 1.97496e-08 0 0 
0 5.44977e-10 0 0 0 0 0 0 0 
0 0 0 0 0 0 0 0 0 
0 0 0 0 0 0 0 1.44014e-09 0 
0 0 0 0 0 0 0 0 0 
0 0 0 0 0 0 0 0 0 
0 0 0 0 0 0 0 0 0 
0 0 0 0 0 7.08093e-09 0 1.06163e-09 0 
0 0 0 0 0 0 0 0 0 
0 0 0 0 0 0 0 0 0 
0 0 0 0 0 0 0 0 0 
0 0 0 0 0 0 0 0 0 
0 0 0 0 0 0 0 0 0 
0 0 0 1.25008e-09 0 0 0 0 0 
0 0 0 0 0 0 0 0 0 
0 0 0 0 0 0 0 0 0 
0 0 0 0 0 0 0 0 0 
0 0 0 0 0 0 1.17775e-09 0 1.26506e-09 
0 0 0 0 0 0 0 0 0 
0 0 0 0 0 0 0 0 0 
0 0 0 0 0 3.05697e-10 0 0 0 
0 6.73321e-10 0 0 0 0 0 3.70278e-10 0 
0 0 0 3.25212e-10 0 0 0 0 0 
0 0 0 0 0 0 0 0 0 
0 0 0 0 0 0 0 0 0 
0 0 0 0 0 0 0 0 0 
0 0 0 0 0 8.55131e-10 0 0 0 
0 0 0 0 0 0 0 0 4.76584e-10 
0 0 4.17923e-11 0 0 0 0 0 0 
0 0 0 0 0 0 0 0 0 
0 0 0 0 0 0 0 
feature_2 1 2500 float
0 0 0 0 0 0 0 0 0 
0 0 0 0 0 0 0 0 8.09486e-11 
0 0 0 0 0 0 0 0 0 
0 0 0 0 0 0 0 0 0 
0 0 0 0 0 0 0 0 0 
0 0 0 1.12278e-09 0 0 0 0 0 
0 0 0 0 0 1.38684e-09 6.18211e-10 0 0 
0 0 0 0 0 0 0 0 0 
0 0 0 0 0 0 0 0 0 
0 0 0 0 0 0 9.13172e-10 0 0 
0 0 0 3.56135e-10 0 0 0 0 0 
2.73178e-08 0 0 0 0 0 0 0 0 
0 0 0 0 0 0 0 0 0 
0 0 0 0 0 0 0 0 0 
0 0 0 0 0 0 0 0 0 
7.77398e-10 0 0 0 0 0 0 0 0 
0 0 0 0 0 0 0 0 0 
0 0 0 0 0 0 0 0 0 
0 0 0 0 0 0 0 0 0 
0 0 0 0 0 0 0 0 0 
0 0 2.57935e-10 0 0 0 0 0 0 
0 4.86239e-10 0 0 0 0 0 9.34985e-10 0 
0 0 0 0 0 0 0 0 0 
0 0 0 3.33535e-10 0 0 0 0 0 
0 0 0 0 0 0 0 0 0 
0 0 1.16878e-09 6.20989e-10 0 0 0 0 0 
0 1.38242e-09 0 0 0 0 0 0 0 
0 0 1.39817e-08 0 0 0 0 0 0 
0 0 0 0 0 0 0 0 0 
0 0 0 0 1.45469e-09 0 0 0 0 
0 0 0 0 0 0 0 0 0 
0 0 1.09202e-09 0 0 1.25702e-10 0 0 0 
0 0 0 0 0 0 0 0 0 
0 0 0 0 0 0 0 0 0 
0 0 0 0 0 0 0 0 0 
0 0 0 0 0 0 0 1.01067e-09 0 
0 0 0 0 0 0 0 0 0 
0 0 1.06903e-08 0 0 0 0 0 0 
0 0 0 0 0 0 0 0 0 
0 0 0 0 0 0 0 6.46924e-10 0 
0 0 0 0 0 0 0 0 0 
0 0 0 0 0 0 0 0 0 
0 0 0 0 0 2.43205e-10 0 0 0 
0 0 0 0 0 0 1.12488e-09 4.89948e-10 0 
0 0 0 0 0 0 1.79273e-08 0 0 
0 0 0 9.47298e-08 0 0 5.21581e-10 0 0 
0 0 0 0 0 0 0 0 0 
0 0 0 0 0 0 0 0 0 
0 0 0 0 0 0 0 0 0 
0 0 0 0 0 0 0 0 0 
0 0 0 0 0 0 0 0 0 
0 0 0 0 0 0 0 0 0 
0 0 0 0 0 0 0 0 0 
0 0 0 0 0 0 0 0 0 
0 0 0 0 0 0 0 0 0 
0 0 6.53726e-10 0 0 0 0 0 0 
0 0 0 0 0 0 0 0 0 
0 0 0 0 0 0 0 1.41062e-09 0 
0 0 0 0 0 0 0 0 0 
0 0 0 0 0 0 0 0 0 
0 0 0 0 0 0 0 0 0 
0 0 0 0 0 0 0 0 0 
1.56084e-09 0 0 0 0 0 0 0 0 
0 0 0 0 0 0 0 0 0 
0 0 0 0 0 0 0 0 0 
0 0 1.46803e-09 0 0 0 0 0 0 
0 0 0 0 0 0 0 0 0 
0 0 0 0 0 0 0 2.2465e-10 2.98709e-10 
0 0 0 0 0 0 0 0 0 
0 0 0 0 0 0 0 0 0 
0 0 0 0 0 0 0 0 0 
0 0 0 0 0 0 0 0 0 
0 0 0 0 0 0 0 0 0 
0 0 0 0 0 0 0 7.39909e-10 0 
6.68958e-11 8.50733e-10 0 0 0 9.97039e-10 0 0 0 
0 0 1.17884e-09 0 0 0 0 0 0 
0 0 0 0 0 0 0 0 0 
0 0 0 1.18732e-09 0 0 0 0 0 
0 0 0 0 0 0 2.2209e-09 0 1.0751e-09 
0 0 0 0 0 0 0 0 0 
0 0 8.84569e-10 0 0 0 0 0 0 
0 0 0 0 0 0 0 0 9.20874e-10 
0 0 0 0 0 0 0 0 0 
0 0 0 0 0 0 0 0 0 
1.08478e-09 0 0 0 0 0 0 6.81595e-07 3.23732e-07 
0 0 0 0 0 0 0 0 0 
0 0 0 0 0 0 0 0 0 
0 0 0 1.62014e-10 1.29557e-10 0 0 0 0 
0 0 0 0 0 0 0 0 0 
0 0 0 0 0 0 0 0 0 
0 0 0 1.19045e-07 0 0 0 0 0 
0 6.56318e-10 0 0 0 0 0 0 0 
0 0 0 0 0 0 0 0 0 
0 0 0 0 0 0 0 5.9271e-10 0 
0 0 0 1.07144e-09 0 0 0 0 0 
0 0 0 8.66727e-10 0 0 0 0 0 
0 0 0 0 0 0 0 0 4.06381e-10 
0 0 0 0 0 0 0 0 0 
0 0 0 0 0 0 8.25462e-10 0 0 
0 0 0 0 0 0 0 0 0 
0 0 0 0 0 1.39249e-09 0 0 0 
0 0 1.31885e-09 0 0 0 1.2545e-09 0 0 
0 0 0 0 0 0 0 0 0 
0 1.54789e-09 1.01941e-09 0 9.00599e-10 0 0 0 0 
0 0 0 0 0 6.98019e-10 0 0 0 
0 0 0 0 0 0 0 0 0 
0 0 0 9.18654e-10 0 0 0 0 0 
0 0 0 0 0 0 0 0 0 
0 0 0 0 0 0 0 0 0 
2.49811e-10 0 0 0 0 0 0 0 0 
0 0 0 0 0 0 0 0 0 
0 0 0 0 0 0 0 0 0 
0 0 0 0 0 0 0 0 0 
0 0 0 0 0 0 0 0 0 
0 0 0 6.11219e-11 0 0 0 0 0 
0 0 0 0 0 0 0 0 0 
0 0 0 0 0 1.05472e-09 0 0 0 
0 0 0 0 0 0 0 0 0 
0 0 0 0 0 0 0 0 0 
0 0 0 0 0 0 0 0 0 
0 3.91298e-10 0 0 0 0 0 0 0 
0 0 0 0 4.20401e-10 0 0 0 0 
0 0 0 0 0 0 0 0 0 
0 0 0 0 0 0 0 0 0 
0 0 2.52374e-10 0 1.08384e-09 0 0 0 0 
0 0 0 0 0 0 0 0 0 
0 0 0 0 0 0 0 0 0 
0 0 0 1.69454e-09 0 0 0 0 0 
0 0 0 0 0 0 0 0 0 
0 0 0 0 0 0 0 1.2081e-09 0 
0 0 0 0 0 0 0 0 0 
0 0 0 0 0 0 0 0 0 
0 0 0 0 0 0 0 1.01076e-09 0 
0 0 0 0 5.72671e-10 0 0 0 0 
0 0 0 0 0 0 0 2.37703e-09 0 
5.06699e-10 0 0 0 0 0 0 0 0 
0 0 0 0 0 0 0 0 0 
0 0 0 0 0 0 0 0 1.04055e-09 
0 0 0 0 0 0 0 0 0 
0 0 0 0 0 5.34182e-10 0 0 0 
0 0 0 0 0 0 0 0 0 
0 0 0 0 1.01292e-09 0 0 0 5.85732e-10 
0 0 0 0 0 0 0 0 0 
0 0 0 0 0 0 0 0 0 
0 0 0 0 0 0 0 0 0 
0 0 0 0 0 0 0 0 0 
0 2.2313e-08 0 1.40951e-09 0 0 8.14676e-10 0 0 
0 0 0 0 0 0 0 0 0 
0 0 0 0 0 0 0 0 0 
0 0 0 1.05169e-09 0 0 0 0 0 
0 0 0 0 0 0 0 0 0 
0 2.50851e-10 0 0 0 0 0 6.47457e-10 0 
0 0 0 0 0 1.74987e-08 0 0 0 
0 0 0 0 0 0 0 0 0 
0 0 0 1.11651e-09 0 0 0 4.41736e-10 1.15962e-08 
0 0 0 0 0 0 0 0 0 
0 0 0 0 0 0 0 0 0 
0 0 0 0 0 0 0 0 0 
0 0 0 0 0 0 0 0 0 
0 0 0 0 0 0 0 0 0 
0 0 0 0 0 0 0 0 0 
0 0 0 0 0 0 0 0 0 
1.44489e-09 0 0 0 0 0 0 0 0 
0 0 0 0 0 0 0 0 0 
0 0 0 0 0 0 0 0 0 
0 6.51562e-10 0 0 0 0 0 0 0 
0 0 0 0 0 0 0 0 0 
0 0 0 0 0 0 0 0 0 
0 0 0 0 0 0 0 0 0 
0 0 0 0 0 0 0 0 6.73579e-10 
0 0 0 0 0 0 0 0 0 
0 0 0 0 0 1.36211e-09 0 0 0 
0 0 0 0 0 0 0 1.13274e-09 0 
0 0 0 0 0 0 0 0 0 
0 0 7.92394e-10 0 0 0 0 0 0 
0 0 0 0 0 0 0 0 0 
0 0 0 0 0 0 0 0 0 
0 0 0 0 0 0 0 0 0 
0 0 0 0 0 0 0 0 0 
0 0 0 0 0 0 0 1.10759e-09 5.54255e-10 
0 0 0 5.27937e-10 0 0 0 0 0 
0 0 0 0 0 0 0 0 0 
0 0 0 0 0 0 0 0 1.00153e-09 
0 0 5.39124e-10 1.32349e-09 0 1.84714e-09 0 0 0 
0 0 0 0 0 0 0 0 0 
0 2.05271e-11 1.14017e-09 0 0 0 0 0 0 
0 0 0 0 0 0 0 0 0 
0 0 0 0 0 0 0 0 0 
0 0 0 0 0 0 0 0 0 
0 0 0 0 0 0 0 0 0 
0 0 0 0 0 0 0 0 0 
1.10633e-09 0 0 0 0 0 0 0 0 
1.01681e-09 0 0 0 0 0 0 0 0 
0 0 0 0 0 0 0 0 0 
0 0 0 0 0 0 0 0 0 
0 0 0 0 0 0 0 0 0 
0 0 0 0 0 0 0 0 0 
7.30184e-10 0 0 0 0 1.26215e-09 0 0 0 
0 0 0 0 0 0 8.70241e-10 6.05965e-10 0 
0 0 0 0 0 0 0 0 0 
0 9.51838e-10 0 0 0 0 0 0 0 
0 5.60668e-10 0 0 0 0 0 0 0 
0 1.30953e-09 0 0 0 0 0 0 0 
0 0 0 0 0 0 0 0 0 
0 0 0 0 0 0 0 2.55218e-10 0 
1.54907e-09 0 0 0 0 0 0 0 0 
0 5.9279e-10 0 0 0 0 0 0 0 
0 0 0 0 0 0 0 0 0 
0 0 0 1.01909e-09 0 0 0 0 0 
0 0 0 0 0 0 0 0 0 
0 0 0 0 0 0 0 0 0 
2.02192e-09 0 0 0 0 0 0 0 0 
0 0 0 0 0 0 0 0 0 
0 0 0 0 0 0 0 0 1.34843e-11 
1.4469e-09 6.18389e-10 0 0 0 0 0 0 0 
0 0 0 0 0 0 0 0 0 
0 0 0 3.36127e-08 0 0 0 0 1.29272e-08 
0 0 0 0 0 0 0 0 0 
2.12839e-09 0 0 0 0 0 4.85123e-10 0 0 
0 0 0 0 0 0 0 0 9.50998e-10 
0 0 0 0 0 0 0 0 0 
0 0 0 0 0 0 0 0 0 
0 0 0 0 0 0 0 0 0 
0 0 0 0 0 0 0 0 0 
0 0 0 0 0 0 0 0 1.2401e-09 
1.30669e-09 0 0 0 0 0 0 0 0 
0 0 0 0 0 0 0 0 0 
0 1.25063e-09 0 3.09674e-09 1.87225e-08 0 0 0 0 
0 0 0 1.29975e-09 0 0 0 0 0 
0 0 0 0 0 0 0 0 9.84809e-10 
0 0 1.15215e-08 0 0 0 0 0 0 
0 0 0 0 0 0 0 0 0 
0 0 0 0 0 6.15636e-10 0 0 0 
0 0 0 0 0 0 0 0 2.34881e-08 
0 0 0 0 0 0 0 0 0 
0 0 0 0 8.96335e-10 0 0 0 0 
0 0 0 0 0 0 0 0 0 
0 0 0 0 0 0 0 0 0 
0 0 0 9.61204e-10 0 0 0 5.17122e-10 0 
0 0 0 0 0 0 0 0 0 
0 0 0 0 0 0 0 5.48802e-10 0 
0 0 0 0 0 5.79398e-10 0 0 0 
0 0 0 0 0 0 0 0 0 
0 1.5416e-09 0 0 0 0 0 0 0 
0 0 0 0 0 0 0 0 0 
0 0 0 0 0 0 0 0 0 
0 0 0 0 0 0 0 0 0 
0 0 0 9.80535e-10 0 0 0 0 0 
0 0 0 3.77128e-09 0 0 0 5.99158e-10 0 
0 0 0 0 0 0 0 0 0 
0 0 0 0 0 0 0 1.73408e-08 0 
0 0 0 0 0 0 0 0 0 
0 0 0 0 0 0 5.72255e-10 0 0 
0 0 0 0 0 0 0 0 0 
0 0 0 0 0 0 1.22614e-09 0 0 
0 0 0 0 0 0 0 0 0 
0 0 0 9.08731e-10 0 0 0 0 0 
0 0 0 0 0 0 0 0 0 
0 0 0 0 0 0 0 6.84745e-10 0 
0 0 0 0 0 0 0 0 0 
0 1.11874e-09 0 0 0 0 0 0 0 
0 0 8.92765e-10 6.38504e-10 0 0 0 0 0 
0 0 6.81942e-10 0 2.92642e-08 0 0 0 0 
0 0 0 0 0 0 0 0 0 
0 0 0 0 0 0 0 0 0 
0 0 0 0 0 0 0 8.09628e-10 0 
0 0 0 2.36042e-09 0 0 0 0 0 
0 0 0 0 0 0 0 1.02719e-09 0 
0 0 2.02558e-10 0 0 0 0 0 0 
0 0 2.54168e-09 0 0 0 2.27498e-10 0 2.15968e-08 
0 0 0 0 6.06363e-10 0 0 0 0 
0 0 0 0 0 0 0 0 0 
1.07735e-09 0 0 0 0 0 0 0 0 
0 0 0 0 0 0 0 0 0 
0 0 0 0 0 0 0 0 0 
1.01963e-09 0 0 0 8.35843e-10 0 0 0 0 
0 3.00922e-10 0 0 0 0 0 0 0 
0 0 0 0 0 0 0 
feature_3 1 2500 float
0 0 0 0 0 0 0 0 0 
0 0 0 0 0 6.10596e-10 0 0 0 
0 0 0 0 0 0 0 0 6.99366e-10 
0 0 0 0 0 0 0 0 0 
0 0 0 0 0 0 0 0 0 
0 0 0 0 0 1.27425e-09 0 0 0 
0 0 0 0 0 0 0 0 0 
1.38562e-09 0 0 0 0 0 0 0 0 
0 0 0 0 0 0 0 0 0 
0 0 0 0 0 0 0 0 0 
0 0 0 0 0 0 0 0 0 
0 0 0 0 0 0 0 0 0 
0 0 0 0 0 0 0 1.14169e-09 0 
0 0 0 1.68144e-09 0 0 8.05997e-10 0 0 
0 0 0 0 0 0 0 0 0 
0 0 0 1.01602e-09 0 0 0 0 0 
0 0 0 0 0 0 0 0 0 
0 0 0 0 0 0 0 0 0 
0 0 0 0 8.73683e-09 0 0 0 6.8497e-10 
0 0 0 0 0 0 0 0 0 
0 0 0 0 0 0 0 0 0 
0 0 0 0 0 0 0 0 0 
0 9.44045e-10 0 0 0 0 0 0 0 
0 0 0 0 0 0 0 0 0 
0 0 0 0 0 0 0 0 0 
0 0 0 0 0 0 0 0 0 
8.17181e-10 0 0 0 0 0 9.01652e-11 0 6.74348e-10 
7.39188e-10 0 0 0 0 0 6.1852e-10 0 0 
0 0 6.51074e-10 0 0 0 0 0 0 
0 0 0 0 0 0 0 0 1.24128e-10 
0 0 0 0 0 0 0 0 1.28733e-09 
0 0 0 0 0 0 0 0 0 
0 0 0 0 0 0 0 0 0 
0 0 0 0 0 0 0 0 0 
0 0 0 0 0 0 0 0 0 
0 0 0 0 0 0 0 0 0 
0 0 0 0 5.05171e-10 0 0 0 0 
0 0 0 0 0 0 0 0 0 
0 0 0 0 0 0 0 0 0 
0 0 0 0 9.35891e-10 0 0 0 0 
0 0 0 0 0 0 0 0 0 
0 0 0 0 0 0 0 0 0 
0 0 0 0 0 0 0 0 0 
0 0 0 0 0 0 0 0 0 
0 0 0 9.81899e-10 0 0 0 0 5.08656e-10 
0 0 0 0 0 0 0 0 0 
0 0 0 0 0 0 0 0 0 
4.16769e-10 0 0 0 0 0 0 0 0 
0 0 3.27635e-10 0 0 0 0 0 0 
0 0 0 0 0 0 0 0 0 
7.11871e-10 0 0 0 0 0 0 0 0 
0 0 0 0 0 0 0 0 0 
0 0 0 0 0 0 0 0 3.70711e-10 
0 0 0 0 0 0 0 0 0 
0 0 0 0 0 0 0 0 0 
0 0 0 0 0 0 0 0 0 
0 0 0 0 0 0 0 0 0 
0 0 0 0 0 0 0 0 8.93241e-11 
0 0 0 0 0 0 0 0 0 
0 0 0 0 0 0 0 0 0 
0 0 0 0 1.53385e-09 0 0 7.03855e-10 0 
0 0 0 0 0 0 0 0 0 
0 0 0 0 0 0 0 0 0 
0 0 0 0 0 0 0 0 0 
0 0 0 0 0 0 0 0 0 
0 0 0 0 0 0 0 0 0 
0 0 0 0 0 0 0 0 0 
0 0 0 0 0 0 0 0 0 
0 0 0 0 0 0 1.46851e-11 0 0 
0 0 0 0 0 0 0 0 0 
0 0 0 0 0 0 0 0 0 
0 0 0 0 0 0 0 0 0 
0 0 0 9.0678e-10 0 0 0 0 0 
0 0 0 0 0 0 0 0 0 
7.78162e-10 0 0 0 0 0 0 0 0 
0 0 0 0 0 0 0 0 0 
0 2.79222e-10 0 0 0 0 1.25729e-09 0 0 
0 0 0 0 0 0 0 1.20413e-09 0 
0 0 0 0 0 0 0 0 0 
1.19415e-09 0 0 0 0 0 0 0 0 
0 0 0 0 0 2.97806e-10 0 0 0 
0 0 0 0 0 0 5.53449e-10 0 0 
0 0 0 0 4.71054e-10 0 0 0 0 
0 0 0 0 0 0 0 0 0 
0 0 0 0 0 0 0 0 0 
0 0 0 1.15101e-09 0 0 0 0 0 
0 0 0 0 0 0 0 0 0 
0 0 0 0 0 0 0 0 0 
9.67557e-10 0 0 0 0 0 0 0 0 
0 0 0 0 0 0 0 0 0 
0 0 0 0 0 0 0 0 0 
0 0 0 0 0 0 0 0 0 
0 0 0 0 0 0 0 0 0 
0 0 0 0 0 0 0 0 9.48132e-10 
0 1.46606e-09 0 0 0 0 0 0 5.08905e-10 
0 0 0 2.73932e-10 0 0 5.47594e-10 0 0 
0 0 0 0 0 0 0 0 0 
0 0 0 0 0 0 0 0 0 
0 0 0 0 1.02476e-07 0 0 0 0 
0 0 0 0 0 0 0 0 0 
0 0 0 0 0 0 0 0 0 
0 0 0 0 0 0 0 0 0 
0 0 9.82173e-10 0 0 0 5.62853e-10 0 0 
0 0 0 0 0 0 0 0 0 
0 0 0 0 0 0 0 0 0 
0 1.38358e-09 0 0 0 0 0 0 0 
2.6785e-10 7.46585e-11 0 0 0 0 0 0 0 
0 0 0 0 0 0 0 0 0 
0 0 0 0 0 2.64098e-10 0 0 0 
0 0 0 0 0 0 0 0 0 
0 0 0 0 0 0 0 0 0 
1.36587e-09 0 0 0 0 7.2356e-10 0 0 0 
0 0 0 0 0 0 0 0 0 
6.05812e-10 0 0 0 0 0 0 0 0 
0 0 0 0 0 0 0 0 0 
0 0 0 0 0 0 0 0 0 
0 0 0 0 0 0 0 0 0 
6.51099e-10 0 0 0 0 0 0 0 0 
0 0 0 0 0 0 0 0 0 
0 0 0 0 0 0 0 0 0 
0 0 0 0 0 0 0 0 0 
0 0 0 0 0 0 1.28983e-09 1.09841e-09 0 
0 0 2.96775e-08 0 0 0 0 0 0 
0 0 0 0 0 0 4.94989e-10 0 0 
0 0 0 0 2.53839e-09 0 0 0 0 
0 0 5.54517e-09 0 0 0 0 0 0 
0 0 0 0 0 0 0 0 0 
0 0 0 0 0 0 0 0 1.24161e-09 
0 5.89658e-10 0 0 0 0 0 0 0 
0 0 0 0 0 0 0 0 1.08733e-09 
0 0 0 0 3.60838e-10 0 0 0 0 
0 0 0 0 0 0 0 0 0 
0 0 0 0 0 0 0 0 0 
0 0 0 0 0 0 0 0 0 
0 0 0 5.17758e-10 0 0 0 0 0 
0 0 0 0 0 0 0 0 0 
0 0 0 0 0 0 0 0 0 
0 0 0 0 0 0 0 0 0 
0 0 0 0 0 0 0 0 9.78758e-10 
0 0 0 0 0 0 0 0 0 
0 0 0 0 0 0 0 0 0 
0 0 0 0 0 0 0 0 0 
2.20956e-10 0 0 0 0 0 0 0 0 
0 0 0 0 0 0 0 0 0 
0 0 0 0 1.5477e-09 2.03207e-08 0 0 2.20643e-08 
0 0 0 0 0 0 0 1.04756e-09 0 
0 1.66732e-08 0 0 0 0 0 0 0 
0 1.01099e-09 0 0 0 0 0 0 0 
0 0 0 0 0 0 0 0 0 
0 0 0 0 0 0 0 0 0 
0 0 0 0 0 0 0 0 5.51868e-10 
0 0 0 0 0 9.71472e-10 0 0 0 
0 0 0 0 0 0 0 0 0 
0 0 0 0 0 4.67541e-10 0 0 0 
0 0 0 0 0 0 0 0 0 
0 1.1899e-09 0 0 0 0 0 0 0 
0 0 0 0 0 0 0 0 0 
0 0 0 0 0 1.4138e-10 0 0 9.50173e-12 
0 0 0 0 0 0 0 0 7.919e-12 
0 0 0 0 0 0 0 0 0 
0 0 0 0 0 0 0 3.5924e-10 0 
3.17588e-10 0 0 0 0 0 0 0 0 
0 0 6.29703e-10 0 0 0 4.8088e-10 0 0 
0 0 0 0 0 0 0 0 0 
0 0 0 0 0 0 0 0 0 
0 0 0 0 0 0 0 0 0 
0 0 0 0 0 0 0 0 0 
0 0 0 0 0 0 0 1.22792e-09 0 
0 0 0 0 0 0 0 0 0 
0 0 0 0 0 0 0 0 0 
0 0 0 0 0 0 0 0 0 
0 0 0 0 0 0 0 0 0 
0 0 0 0 0 0 0 0 0 
0 0 0 1.2755e-09 0 0 0 0 0 
0 0 0 0 0 0 0 0 0 
0 0 0 0 0 0 0 0 0 
0 0 0 0 0 0 0 0 0 
0 0 0 0 0 0 0 0 0 
0 0 0 0 5.78527e-10 0 0 0 0 
0 7.20259e-11 0 0 0 0 0 0 0 
0 0 0 0 6.70677e-10 1.15494e-09 0 0 0 
0 5.25951e-10 0 0 0 0 0 4.54538e-10 0 
0 0 0 0 0 4.47837e-10 0 0 0 
0 0 0 0 0 0 0 0 0 
0 0 0 0 0 0 0 0 0 
6.0326e-10 0 7.62682e-10 0 0 0 0 0 0 
0 3.9211e-10 1.23542e-10 0 0 0 0 0 0 
0 0 0 0 0 0 0 0 0 
0 0 0 1.00149e-09 0 0 0 0 0 
0 0 0 0 0 0 0 0 0 
0 0 0 0 0 0 0 1.89006e-10 0 
0 0 0 0 0 0 0 0 0 
0 0 0 3.73229e-10 0 0 0 0 0 
0 0 0 0 0 0 0 0 0 
0 0 0 0 0 0 0 0 0 
0 0 0 0 1.73938e-09 0 0 0 0 
0 0 0 0 0 0 0 1.08219e-09 0 
0 0 1.24064e-09 0 0 0 0 0 0 
2.80982e-08 0 0 0 0 0 0 7.29617e-10 0 
0 0 0 1.32497e-09 0 0 0 0 0 
1.50572e-08 0 0 0 0 0 0 0 0 
0 0 0 0 0 0 0 0 0 
0 0 0 5.50614e-10 0 0 0 0 1.03495e-09 
0 0 0 0 0 0 0 0 0 
0 0 0 0 0 0 0 0 0 
0 0 0 0 0 0 0 0 0 
0 0 0 0 0 7.91477e-10 0 0 0 
0 0 0 0 0 0 0 0 0 
0 0 0 7.50306e-10 0 0 0 0 0 
0 0 0 0 0 0 0 0 0 
0 0 0 0 0 0 0 0 0 
0 0 0 0 0 0 0 0 0 
0 0 0 0 0 0 0 0 0 
0 0 0 0 0 0 0 0 0 
0 0 0 0 0 0 0 0 0 
0 0 0 0 0 9.9174e-10 0 0 0 
0 0 0 0 0 0 0 0 0 
0 0 0 0 0 4.98346e-10 0 0 0 
0 0 0 0 0 6.27004e-10 0 0 0 
0 0 0 0 0 0 0 0 0 
0 0 0 0 0 0 0 0 0 
0 0 0 0 0 0 0 1.35303e-09 0 
0 0 0 7.04659e-10 0 0 0 0 0 
0 0 0 0 0 0 0 0 2.22778e-10 
0 0 0 0 0 0 0 0 0 
0 0 0 0 0 0 0 0 1.58275e-09 
0 0 0 0 0 0 0 0 0 
0 0 7.48386e-10 0 0 0 0 0 0 
0 0 0 0 0 0 0 0 0 
5.28702e-10 0 0 0 0 0 0 0 0 
0 1.16368e-09 0 0 0 5.92043e-10 0 0 0 
0 0 0 0 0 0 0 0 0 
9.26249e-10 0 0 0 0 1.11966e-09 0 0 0 
0 0 0 0 0 0 0 0 0 
0 0 0 0 0 0 0 0 0 
0 0 0 0 0 0 0 0 0 
0 0 0 0 0 0 0 0 0 
0 0 0 0 0 0 0 0 0 
0 0 0 0 0 0 0 0 0 
0 1.33448e-09 0 0 0 0 0 0 0 
0 0 0 0 0 0 0 9.31763e-10 0 
0 3.62675e-10 0 0 0 0 0 0 1.08847e-09 
0 0 0 0 0 0 0 0 0 
0 0 0 0 0 0 0 0 0 
0 0 0 0 0 0 0 0 0 
0 0 0 0 0 0 0 0 1.02834e-09 
0 0 0 0 0 0 0 0 0 
0 0 1.22472e-09 0 0 0 0 0 0 
0 0 0 0 0 0 0 0 0 
0 0 0 0 0 0 0 0 0 
1.30237e-08 0 0 0 0 0 0 0 0 
0 0 0 0 0 0 0 0 0 
0 0 0 0 0 0 0 0 0 
0 0 0 0 0 0 0 3.35092e-11 0 
0 0 0 0 0 0 0 0 0 
0 0 0 0 0 0 0 0 0 
0 0 0 0 0 0 0 0 0 
0 0 1.16317e-09 0 0 0 0 0 0 
0 0 0 0 0 0 0 0 0 
0 0 0 0 0 0 0 0 0 
0 0 0 0 0 0 0 0 0 
0 0 0 0 0 0 0 0 0 
0 0 0 0 0 0 0 0 8.43318e-10 
0 0 9.89115e-10 0 0 0 0 0 0 
0 0 0 0 0 0 0 0 0 
0 0 0 0 0 0 0 0 0 
0 0 0 0 0 0 0 0 0 
0 0 0 0 0 0 0 0 0 
0 0 0 0 0 0 0 0 0 
0 0 0 0 0 0 0 0 0 
8.77904e-10 0 0 0 0 0 0 0 0 
0 0 1.03005e-09 0 0 0 0 0 0 
0 1.03493e-09 0 0 0 0 0 0 0 
0 0 0 0 0 0 0 0 0 
0 0 0 0 0 0 0 1.49499e-09 0 
0 2.15548e-08 7.9752e-10 0 0 6.32021e-10 0 0 0 
0 0 0 0 0 0 0 0 0 
0 0 0 0 0 0 0 
feature_4 1 2500 float
0 0 0 0 0 0 0 0 0 
0 1.2819e-09 0 1.55668e-09 0 0 0 0 0 
0 0 0 7.4813e-10 0 0 1.07852e-09 0 0 
0 0 0 0 0 0 0 0 0 
0 0 0 0 0 0 0 0 0 
0 0 0 0 0 0 2.30905e-10 0 0 
0 0 0 0 0 0 0 0 0 
0 0 0 0 0 0 0 0 0 
0 0 0 3.68601e-10 0 0 0 0 0 
0 0 0 0 0 0 0 0 0 
0 0 0 0 0 0 0 0 0 
0 0 1.62867e-09 0 0 0 0 0 0 
0 0 0 0 0 0 0 0 0 
0 0 0 0 0 0 0 0 0 
0 4.29033e-10 0 0 0 0 0 0 7.18103e-10 
0 0 0 0 0 0 0 0 0 
0 6.75826e-10 0 0 0 1.39863e-09 1.1273e-09 0 0 
0 0 0 0 0 0 0 0 0 
0 0 0 0 0 0 0 0 0 
0 0 0 0 0 0 0 0 0 
0 0 0 0 0 4.9716e-10 0 0 0 
0 0 0 0 0 0 0 0 3.13335e-10 
0 0 0 0 0 0 0 0 0 
0 0 0 0 0 0 0 0 0 
0 0 0 0 0 0 0 0 0 
0 0 0 0 0 0 0 0 0 
0 0 0 0 0 3.17478e-10 0 0 0 
9.03668e-10 0 0 0 0 0 0 0 0 
0 0 0 0 0 0 0 0 0 
0 0 0 0 0 0 0 0 0 
0 0 0 0 0 0 0 0 0 
0 0 1.23563e-09 0 0 3.21087e-10 0 0 0 
0 0 0 0 0 0 0 0 0 
0 0 0 0 0 0 0 0 0 
0 0 0 0 0 0 0 0 0 
0 0 0 0 0 0 0 9.31401e-10 0 
0 0 0 0 0 0 0 0 0 
0 0 1.63732e-10 0 0 0 0 0 0 
0 0 9.2605e-10 0 0 0 0 0 0 
0 0 0 0 0 0 0 0 0 
0 0 0 0 0 0 0 0 0 
0 0 0 0 0 0 0 0 0 
0 0 0 0 0 0 0 0 0 
0 6.25018e-10 0 0 0 0 0 0 0 
0 0 0 0 0 0 8.6218e-10 0 0 
0 0 0 0 0 0 0 0 0 
0 0 0 0 0 0 0 0 0 
0 0 0 0 0 0 0 0 7.75813e-10 
0 0 0 0 1.30854e-09 0 0 0 0 
0 0 0 0 0 0 0 0 0 
0 0 0 0 0 0 0 0 0 
0 0 0 7.41867e-10 0 0 0 0 0 
0 0 0 0 0 0 0 2.54278e-10 0 
0 0 0 9.73159e-10 0 0 0 0 0 
0 0 0 0 0 0 0 0 0 
0 0 0 0 0 0 0 0 0 
0 0 0 0 0 1.79119e-10 0 0 0 
0 0 0 0 0 0 0 0 0 
0 9.88578e-10 0 0 0 0 3.78481e-10 0 0 
0 0 0 8.72733e-10 0 0 0 0 0 
0 0 0 0 0 0 0 0 0 
0 0 0 0 0 0 0 0 0 
0 0 0 0 0 0 1.00127e-09 0 0 
0 0 0 0 0 0 0 0 0 
0 0 0 0 0 0 0 0 0 
0 0 0 0 0 0 0 0 0 
0 0 9.24896e-10 0 0 0 0 0 0 
0 0 6.79787e-10 0 0 0 0 0 0 
0 0 0 0 0 0 0 0 0 
0 0 0 0 0 0 0 0 0 
0 0 1.10078e-09 0 0 0 0 0 0 
0 0 0 0 0 0 0 0 0 
0 0 0 0 0 0 0 0 0 
0 0 0 0 0 0 0 0 0 
0 0 0 0 0 0 0 0 0 
0 0 0 0 0 0 0 0 0 
0 0 0 0 0 0 0 0 0 
0 0 0 0 0 0 0 0 0 
0 0 0 0 0 0 0 0 0 
0 0 0 0 0 0 0 0 0 
3.92089e-10 0 0 0 0 0 0 0 0 
0 0 0 0 0 0 0 7.90468e-10 3.51209e-10 
0 0 0 0 0 0 0 0 0 
0 0 0 0 0 0 0 0 0 
0 0 0 0 0 0 0 0 0 
0 0 0 0 0 0 0 0 0 
0 0 0 0 0 0 0 0 0 
0 0 0 0 0 0 0 0 0 
0 0 0 0 0 0 0 0 0 
0 0 0 0 0 0 0 0 0 
0 0 5.98021e-10 1.26285e-09 0 0 0 0 0 
0 0 0 0 0 0 0 0 0 
0 0 0 0 0 0 0 0 0 
0 0 0 0 0 0 0 0 0 
0 0 0 0 0 0 0 0 0 
0 0 0 0 0 0 0 0 0 
0 0 0 0 0 0 0 0 0 
0 0 0 0 0 0 0 0 0 
5.83075e-10 0 0 0 0 0 0 0 1.42482e-09 
0 0 0 0 0 0 0 0 0 
0 0 0 0 0 0 1.30323e-09 0 0 
0 0 0 0 0 0 0 0 0 
0 6.57181e-10 0 0 0 0 0 0 0 
1.27931e-09 0 0 0 0 0 0 0 0 
0 0 0 0 0 0 0 0 0 
0 0 0 0 0 0 0 0 0 
0 0 0 0 0 0 0 0 0 
0 0 8.9214e-10 0 0 0 0 0 8.61711e-10 
0 0 0 0 0 0 0 0 0 
0 0 6.30791e-10 0 0 0 0 0 0 
0 0 0 0 0 0 0 0 0 
0 0 0 9.21791e-10 0 0 0 0 0 
0 0 0 0 0 0 0 0 0 
0 0 0 0 0 0 0 0 0 
0 0 0 0 0 0 0 0 0 
0 0 0 0 0 0 0 0 0 
0 0 0 0 0 0 0 0 0 
0 0 0 0 0 0 0 0 0 
0 0 0 0 0 0 0 0 0 
0 0 0 0 0 0 1.13192e-09 9.63986e-10 0 
0 0 0 0 0 0 0 0 0 
0 0 0 0 0 0 0 8.90292e-10 0 
0 0 0 0 0 0 0 0 0 
0 0 0 0 0 0 0 0 0 
0 0 0 0 0 0 0 0 0 
0 0 0 0 7.50804e-10 0 0 0 0 
0 0 0 0 0 0 0 0 0 
0 0 0 0 0 0 0 0 0 
0 3.22901e-10 0 0 0 0 0 0 0 
0 0 0 0 0 0 0 0 0 
0 0 0 0 0 0 0 0 0 
0 0 0 0 0 0 0 0 0 
0 0 0 3.9263e-10 0 0 0 0 0 
0 0 0 0 0 0 0 0 0 
0 0 0 0 0 0 0 1.93332e-10 0 
0 0 0 0 0 0 0 8.09379e-10 0 
0 0 0 0 0 0 0 0 0 
0 0 0 0 0 0 0 0 0 
0 0 0 0 0 0 0 0 0 
0 0 0 0 0 0 0 0 0 
0 1.7198e-09 0 0 0 4.76899e-10 0 0 0 
0 0 0 0 0 0 0 0 0 
0 0 0 0 0 0 0 0 0 
0 1.04275e-09 0 0 0 0 0 1.08087e-09 0 
0 0 0 0 0 0 0 0 0 
0 0 0 0 0 0 0 0 0 
0 0 0 0 0 0 0 0 0 
0 0 0 0 0 0 7.46624e-10 0 0 
0 0 0 0 0 0 0 0 0 
0 0 0 0 0 0 0 0 1.23563e-09 
0 0 0 0 0 0 0 0 0 
0 0 0 1.61897e-09 0 0 0 0 0 
0 0 0 0 0 0 0 0 0 
0 0 0 0 0 0 0 0 0 
0 0 0 0 0 0 1.03956e-09 0 0 
0 0 0 0 0 0 0 2.16271e-10 0 
0 0 0 0 0 0 0 0 0 
0 0 0 1.1564e-09 3.8208e-10 0 9.01843e-11 0 0 
0 0 0 0 0 0 0 0 0 
0 0 0 0 0 0 0 0 0 
0 0 0 0 0 0 0 0 0 
0 0 0 0 0 0 0 0 0 
0 7.17691e-10 0 0 0 0 0 0 0 
0 0 0 0 0 0 0 0 0 
0 0 0 0 0 0 0 0 0 
0 0 0 0 0 0 0 0 0 
0 0 0 0 0 0 0 0 0 
0 0 0 0 0 0 0 0 0 
0 0 0 0 0 0 0 0 0 
0 0 0 0 0 0 0 0 4.62217e-10 
0 0 0 0 0 0 0 0 0 
0 8.46921e-10 0 0 0 0 7.92886e-10 0 0 
0 0 0 0 0 0 0 0 0 
0 0 0 0 0 0 0 0 0 
0 0 0 0 0 0 0 5.50953e-10 0 
0 1.40809e-09 0 0 0 0 1.024e-09 0 0 
8.40537e-10 0 0 0 0 0 0 8.5724e-10 0 
0 0 0 0 0 0 0 0 0 
0 0 0 0 0 0 0 0 0 
0 0 0 0 0 0 0 0 0 
0 7.46756e-10 0 0 0 0 4.76803e-10 0 0 
0 0 0 0 0 0 0 0 0 
0 0 0 0 0 0 0 0 0 
0 0 0 0 0 0 0 0 0 
0 0 0 0 0 0 0 0 0 
0 0 0 0 0 0 0 0 0 
4.8899e-10 0 0 0 0 0 0 0 0 
0 0 0 0 0 0 0 0 0 
0 0 0 0 0 0 0 7.42816e-10 0 
0 0 0 0 0 0 0 0 0 
0 0 0 0 0 0 0 0 0 
0 0 0 0 0 8.67715e-10 0 0 0 
0 0 0 0 0 0 0 0 0 
0 0 0 0 1.15789e-09 0 5.04627e-10 0 0 
0 0 0 0 0 0 0 0 0 
0 0 0 0 0 0 0 0 0 
0 0 0 0 0 0 0 1.44867e-10 0 
0 0 0 0 0 0 0 0 0 
0 0 0 0 0 0 0 0 0 
0 0 0 0 0 0 0 0 0 
0 0 0 0 0 0 0 0 0 
0 0 0 0 0 0 0 0 0 
1.12727e-09 0 0 0 0 0 1.96431e-10 0 0 
0 0 0 4.51537e-10 0 0 0 0 0 
0 0 5.17124e-10 0 0 0 0 0 0 
0 0 0 0 0 0 0 0 0 
0 0 0 0 0 0 0 0 0 
0 0 0 0 0 0 0 0 0 
0 0 0 0 0 0 0 0 0 
1.24945e-09 0 4.00042e-10 8.39339e-10 0 0 0 0 0 
0 0 0 0 0 0 0 0 0 
0 0 0 0 0 0 0 0 0 
0 0 0 5.92358e-10 0 0 0 0 0 
0 0 0 0 0 0 1.32733e-09 0 0 
0 0 0 0 0 0 0 0 0 
0 0 0 0 0 0 0 0 0 
0 0 0 0 0 0 0 0 0 
0 0 0 0 0 0 0 0 0 
0 0 0 0 0 0 0 0 0 
0 0 0 0 0 0 0 0 0 
0 0 0 0 0 0 0 0 0 
0 0 0 0 0 0 0 0 0 
0 0 0 0 0 0 0 0 0 
0 0 0 0 0 0 0 0 0 
0 0 9.21368e-10 0 0 0 0 0 0 
0 0 0 0 0 0 0 0 0 
0 0 0 0 0 0 0 0 0 
0 0 0 0 0 0 0 0 0 
1.05096e-09 0 0 0 0 0 0 1.28752e-09 0 
0 0 0 0 0 0 0 0 0 
0 0 0 0 0 0 0 0 0 
3.7387e-10 0 0 0 1.3177e-09 0 0 0 0 
0 0 0 0 0 0 0 0 0 
0 0 0 0 0 0 0 0 0 
0 0 0 0 0 0 0 0 0 
0 0 0 9.71783e-10 0 0 1.14424e-09 0 0 
0 0 0 6.17291e-10 0 0 0 0 0 
0 0 0 0 0 0 0 0 0 
0 0 0 0 0 8.09903e-11 2.71882e-10 0 0 
0 0 0 0 0 0 0 1.3311e-09 0 
0 0 0 7.55119e-10 0 0 0 0 0 
0 0 0 0 0 1.06501e-09 0 0 0 
0 0 5.97211e-11 0 0 0 0 0 0 
0 0 0 0 0 0 0 1.59843e-09 0 
0 0 0 0 0 0 0 0 0 
0 0 0 0 0 0 0 0 0 
0 0 1.10273e-09 0 0 0 0 0 0 
0 0 0 0 0 0 0 0 0 
0 0 0 0 0 0 0 0 0 
0 0 1.06068e-09 0 0 0 0 0 0 
0 0 0 0 0 0 0 0 0 
0 0 0 0 0 0 1.09979e-09 0 0 
0 0 0 0 0 6.53646e-10 0 0 0 
4.87962e-10 0 0 0 0 0 0 0 0 
0 0 0 0 8.71673e-10 0 0 0 0 
0 0 0 0 0 0 0 0 0 
0 0 0 0 0 0 0 0 0 
0 0 0 0 0 0 0 0 0 
0 4.85775e-10 0 6.00643e-10 0 0 0 0 0 
0 0 0 9.43853e-10 0 0 0 0 0 
0 0 0 0 0 0 0 0 0 
0 0 0 0 0 0 0 0 0 
0 0 7.44933e-10 0 0 0 0 0 0 
0 0 0 0 0 0 0 0 0 
0 0 0 0 0 0 0 0 0 
0 0 5.1951e-10 0 0 0 0 0 0 
0 0 0 0 0 0 0 0 0 
0 0 0 0 0 0 1.13086e-09 0 0 
0 0 0 0 0 0 0 1.23637e-09 0 
0 0 0 0 0 0 0 0 0 
0 0 0 0 0 0 0 0 0 
0 0 0 0 0 0 0 0 0 
0 0 0 0 0 4.48324e-10 0 0 0 
0 1.26947e-09 0 0 0 0 0 0 0 
0 0 0 0 0 0 0 0 0 
0 0 0 0 0 1.33242e-09 0 0 0 
0 0 0 0 0 0 0 0 0 
0 0 0 0 0 0 0 
feature_5 1 2500 float
0 0 0 0 0 0 0 0 0 
0 0 0 0 0 0 0 0 0 
0 0 0 0 0 0 0 0 0 
0 0 0 0 0 0 1.22469e-09 0 0 
3.04144e-10 0 0 0 0 6.98222e-10 0 0 0 
0 0 0 0 0 0 0 0 0 
0 1.49205e-09 0 0 0 0 0 0 0 
0 0 0 0 0 0 0 0 0 
0 0 0 0 0 0 0 0 0 
0 0 0 0 0 0 0 1.62842e-09 0 
0 0 1.03849e-09 0 0 0 0 0 0 
3.26275e-08 0 1.37956e-09 0 0 0 0 0 0 
0 0 7.09527e-10 0 5.59226e-10 0 0 0 0 
0 0 0 0 0 0 0 0 0 
0 0 0 0 0 0 0 0 0 
0 0 0 0 0 0 7.19446e-10 0 0 
0 0 0 0 0 0 0 0 8.86359e-10 
0 0 0 0 0 0 2.87255e-10 0 0 
0 0 0 0 0 0 0 0 0 
0 0 0 0 0 0 0 0 0 
0 0 0 0 0 0 1.00247e-09 0 0 
0 0 0 3.0628e-08 0 0 2.94474e-10 0 2.46183e-08 
0 0 9.0041e-10 8.43333e-10 0 0 0 0 0 
0 0 0 0 0 0 0 0 0 
0 0 1.39975e-08 0 0 0 0 0 0 
0 0 0 0 0 0 0 0 1.52358e-09 
0 0 0 0 0 0 0 0 0 
0 0 1.45049e-08 0 0 0 0 0 0 
0 0 0 0 0 0 0 1.22371e-09 0 
0 0 0 0 0 0 0 0 0 
0 0 0 0 0 0 0 0 0 
0 0 0 0 0 0 0 6.19359e-10 0 
0 0 0 0 1.39326e-09 0 0 0 0 
0 0 0 2.26843e-10 0 0 0 0 0 
0 0 0 0 0 0 0 0 0 
0 0 0 0 0 0 0 0 0 
0 0 0 0 0 0 0 0 0 
0 0 0 0 0 0 0 1.39747e-08 0 
0 0 0 9.0235e-10 0 0 0 0 0 
0 0 0 0 0 0 0 0 0 
0 8.34863e-10 0 0 0 0 0 0 0 
1.09683e-09 0 0 0 0 0 0 0 0 
0 0 0 0 0 0 0 0 0 
2.95222e-10 0 0 0 1.02956e-09 0 0 0 0 
0 0 0 0 0 0 1.86213e-08 0 0 
0 0 0 1.27438e-07 0 0 0 0 3.80067e-09 
0 0 0 1.0811e-09 0 5.75952e-10 0 0 0 
0 0 0 0 0 0 0 0 1.25411e-09 
0 0 0 0 0 0 0 0 0 