# vtk DataFile Version 5.1
vtk output
ASCII
DATASET STRUCTURED_POINTS
DIMENSIONS 100 100 1
SPACING 1 1 1
ORIGIN 0 0 0
POINT_DATA 10000
FIELD FieldData 6
feature_1 1 10000 float
0 0 0 0 0 0 0 0 0 
0 0 0 0 0 0 0 0 0 
0 0 0 0 0 0 0 0 0 
0 0 0 0 0 0 0 0 0 
0 0 0 0 0 0 0 0 0 
0 0 0 0 0 0 0 0 0 
0 0 0 0 0 0 0 0 0 
0 0 0 0 0 0 0 0 0 
0 0 0 0 0 0 0 0 0 
0 0 0 0 0 0 0 0 0 
0 0 0 0 0 0 0 0 0 
0 0 0 0 0 0 0 0 0 
0 0 0 0 0 0 0 0 0 
0 0 0 0 0 0 0 0 0 
0 0 0 0 0 0 0 0 0 
0 0 0 0 0 0 0 0 0 
0 0 0 0 0 0 0 0 0 
0 0 0 0 0 0 0 0 0 
0 0 0 0 0 0 0 0 0 
0 0 0 0 0 0 0 0 0 
0 0 0 0 0 0 0 0 0 
0 0 0 0 0 0 0 0 0 
0 0 0 0 0 0 0 0 0 
0 0 0 0 0 0 0 0 0 
0 0 0 0 0 0 0 0 0 
0 0 0 0 0 0 0 0 0 
0 0 0 0 0 0 0 0 0 
0 0 0 0 0 0 0 0 0 
0 0 0 0 0 0 0 0 0 
0 0 0 0 0 0 0 0 0 
0 0 0 0 0 0 0 0 0 
0 0 0 0 0 0 0 0 0 
0 0 0 0 0 0 0 0 0 
0 0 0 0 0 0 0 0 0 
0 0 0 0 0 0 0 0 0 
0 0 0 0 0 0 0 0 0 
0 0 0 0 0 0 0 0 0 
0 0 0 0 0 0 0 0 0 
0 0 0 0 0 0 0 0 0 
0 0 0 0 0 0 0 0 0 
0 0 0 0 0 0 0 0 0 
0 0 0 0 0 0 0 0 0 
0 0 0 0 0 0 0 0 0 
0 0 0 0 0 0 0 0 0 
0 0 0 0 0 0 0 0 0 
0 0 0 0 0 0 0 0 0 
0 0 0 0 0 0 0 0 0 
0 0 0 0 0 0 0 0 0 
0 0 0 0 0 0 0 0 0 
0 0 0 0 0 0 0 0 0 
0 0 0 0 0 0 0 0 0 
0 0 0 0 0 0 0 0 0 
0 0 0 0 0 0 0 0 0 
0 0 0 0 0 0 0 0 0 
0 0 0 0 0 0 0 0 0 
0 0 0 0 0 0 0 0 0 
0 0 0 0 0 0 0 0 0 
0 0 0 0 0 0 0 0 0 
0 0 0 0 0 0 0 0 0 
0 0 0 0 0 0 0 0 0 
0 0 0 0 0 0 0 0 0 
0 0 0 0 0 0 0 0 0 
0 0 0 0 0 0 0 0 0 
0 0 0 0 0 0 0 0 0 
0 0 0 0 0 0 0 0 0 
0 0 0 0 0 0 0 0 0 
0 0 0 0 0 0 0 0 0 
0 0 0 0 0 0 0 0 0 
0 0 0 0 0 0 0 0 0 
0 0 0 0 0 0 0 0 0 
0 0 0 0 0 0 0 0 0 
0 0 0 0 0 0 0 0 0 
0 0 0 0 0 0 0 0 0 
0 0 0 0 0 0 0 0 0 
0 0 0 0 0 0 0 0 0 
0 0 0 0 0 0 0 0 0 
0 0 0 0 0 0 0 0 0 
0 0 0 0 0 0 0 0 0 
0 0 0 0 0 0 0 0 0 
0 0 0 0 0 0 0 0 0 
0 0 0 0 0 0 0 0 0 
0 0 0 0 0 0 0 0 0 
0 0 0 0 0 0 0 0 0 
0 0 0 0 0 0 0 0 0 
0 0 0 0 0 0 0 0 0 
0 0 0 0 0 0 0 0 0 
0 0 0 0 0 0 0 0 0 
0 0 0 0 0 0 0 0 0 
0 0 0 0 0 0 0 0 0 
0 0 0 0 0 0 0 0 0 
0 0 0 0 0 0 0 0 0 
0 0 0 0 0 0 0 0 0 
0 0 0 0 0 0 0 0 0 
0 0 0 0 0 0 0 0 0 
3.97674e-10 0 0 0 0 0 0 0 0 
0 0 0 0 0 0 0 0 0 
0 0 0 0 0 0 0 0 0 
0 0 0 0 0 0 0 0 0 
0 0 0 0 0 0 0 0 0 
0 0 0 0 0 0 0 0 0 
0 0 0 0 0 0 0 0 0 
0 0 0 0 0 0 0 0 0 
0 0 0 0 0 0 0 0 0 
0 0 0 0 0 0 0 0 0 
0 0 0 0 0 0 0 7.43914e-10 0 
0 1.094e-09 0 0 0 0 0 0 0 
0 0 0 0 0 0 0 0 0 
0 0 0 0 0 0 0 0 0 
0 0 0 0 0 0 0 0 0 
0 0 0 0 0 0 0 0 0 
0 0 0 0 0 0 0 0 0 
0 0 0 0 0 0 0 0 0 
0 0 0 0 0 0 0 0 0 
0 0 0 0 0 0 0 0 0 
0 0 1.68156e-10 0 0 0 0 0 0 
0 0 0 0 0 0 0 0 0 
0 1.87064e-09 0 0 0 0 0 0 0 
0 0 0 0 0 0 0 0 0 
0 0 0 0 0 0 0 0 0 
0 0 0 0 0 0 0 0 0 
0 0 0 0 0 0 0 0 0 
0 0 0 0 0 0 0 0 0 
0 0 0 0 0 0 0 0 0 
0 0 0 0 0 0 0 0 0 
0 0 0 0 0 0 0 0 0 
0 0 0 0 4.35178e-10 0 0 0 0 
0 0 0 0 0 0 0 0 1.75958e-09 
0 0 0 0 0 0 4.37767e-10 0 0 
0 0 0 0 0 0 0 0 0 
0 0 4.64587e-10 0 0 0 0 0 0 
0 0 0 0 5.49583e-10 5.40254e-10 0 0 0 
0 0 0 0 0 0 0 0 0 
0 0 0 0 0 0 0 0 0 
0 0 0 0 0 0 0 0 0 
0 0 0 0 0 0 0 0 0 
0 0 0 0 0 0 0 0 0 
0 0 0 0 0 0 0 0 0 
0 0 0 0 0 0 0 0 0 
0 0 0 8.48763e-07 7.39819e-09 2.32957e-09 0 1.0344e-09 0 
0 0 0 0 0 0 2.22386e-09 0 6.83251e-07 
1.53091e-09 0 0 0 0 0 0 0 0 
0 0 0 0 0 0 0 0 0 
0 0 0 0 0 0 0 0 0 
0 0 0 0 0 0 0 0 0 
0 0 0 0 0 0 0 0 0 
0 0 0 0 0 0 0 0 0 
0 0 0 0 0 0 0 0 0 
0 0 0 0 0 0 0 0 0 
0 0 0 1.57688e-09 0 0 0 9.94153e-10 0 
3.46213e-09 0 0 8.9515e-07 0 7.22614e-09 0 0 0 
8.23476e-10 2.90154e-10 0 0 0 0 0 0 0 
0 0 2.0275e-09 1.27506e-09 8.24316e-10 0 0 0 0 
0 0 0 0 0 5.51254e-10 0 0 0 
0 1.61332e-09 0 0 0 0 0 0 0 
0 0 0 0 0 0 0 0 0 
0 0 0 0 0 0 0 0 0 
0 0 0 0 0 0 0 0 0 
0 0 0 0 0 0 0 0 0 
0 0 0 0 4.91177e-09 6.85559e-07 0 1.56676e-09 0 
0 0 8.70265e-10 1.67683e-09 0 8.94414e-09 0 0 0 
0 0 0 0 0 0 0 0 1.44784e-09 
0 0 0 0 0 0 0 0 0 
0 0 0 0 0 0 0 0 0 
0 0 0 0 0 0 0 5.61797e-10 0 
6.84889e-07 0 0 0 0 0 0 0 0 
0 0 0 0 0 0 0 0 0 
0 0 0 0 0 0 0 0 0 
0 0 0 0 0 0 0 0 0 
0 0 0 0 0 0 0 0 0 
0 0 0 0 0 0 0 0 0 
9.80268e-10 0 0 0 0 0 6.85237e-07 5.17755e-09 2.94589e-09 
0 0 0 0 0 0 8.56381e-07 0 0 
0 0 0 0 0 0 0 0 0 
0 0 1.5052e-09 0 0 0 0 0 0 
0 0 0 0 1.09151e-09 0 0 0 0 
0 0 0 4.81399e-10 0 0 0 0 0 
0 0 0 0 0 0 0 0 0 
0 0 0 0 0 0 0 0 0 
0 0 0 0 0 0 0 0 0 
0 0 0 0 0 0 0 0 0 
0 0 0 0 0 0 1.9734e-09 0 0 
9.96284e-10 0 0 5.50709e-10 0 0 2.52838e-09 0 0 
0 2.35345e-09 0 0 0 7.93116e-07 1.3672e-08 0 0 
0 0 7.34077e-07 0 0 1.38913e-09 0 0 0 
0 0 0 0 1.73031e-09 0 0 0 2.05106e-09 
0 2.43915e-09 0 0 0 0 0 0 0 
0 0 0 0 0 0 0 0 0 
0 0 0 0 0 0 0 0 0 
0 0 0 0 0 0 0 0 0 
0 0 0 0 0 0 0 0 0 
0 0 0 0 0 0 0 0 0 
0 0 0 0 0 0 1.30292e-09 5.78059e-09 0 
1.87232e-09 0 0 0 0 0 0 0 2.53846e-09 
0 0 0 0 0 2.14158e-09 0 0 2.17375e-09 
0 0 0 0 0 0 1.27319e-09 0 0 
0 0 0 0 0 0 0 7.66565e-07 0 
7.6639e-07 8.28931e-09 9.90816e-10 0 0 0 0 0 7.08232e-07 
0 0 0 0 0 0 0 0 0 
0 0 0 0 0 0 0 0 0 
0 0 0 0 0 0 0 0 0 
0 0 0 0 0 0 0 0 0 
0 0 0 0 0 0 0 0 0 
0 0 0 0 0 4.04191e-09 0 0 0 
0 0 0 0 0 0 0 0 1.81881e-09 
0 1.53887e-09 0 5.24413e-09 5.90058e-09 0 5.63208e-10 0 0 
0 0 0 0 0 0 1.97935e-09 0 0 
0 0 0 0 0 1.37427e-09 0 0 0 
0 0 2.85399e-09 0 0 3.59121e-10 0 7.54317e-10 0 
0 0 2.25695e-09 2.50677e-09 1.82807e-09 0 0 0 0 
0 0 0 0 0 0 0 0 0 
0 0 0 0 0 0 0 0 0 
0 0 0 0 0 0 0 0 0 
0 0 0 0 0 0 0 0 0 
0 0 0 0 0 0 0 2.31184e-09 1.67084e-09 
3.31537e-09 6.88559e-07 0 0 0 0 0 0 0 
0 0 0 0 6.89738e-07 0 0 0 0 
0 9.63716e-07 9.82745e-07 0 2.36358e-09 7.6834e-07 0 0 0 
0 0 0 0 0 0 0 1.93963e-09 0 
0 2.02529e-09 0 0 0 1.30044e-09 0 2.02572e-09 0 
2.22865e-09 0 9.49806e-10 1.39033e-09 1.11129e-09 0 0 0 0 
0 0 0 0 0 0 0 8.08108e-10 0 
0 0 0 0 0 0 0 0 0 
0 0 0 0 0 0 0 0 0 
0 0 0 0 0 0 0 0 0 
0 0 0 0 2.16283e-09 4.9496e-09 6.8546e-07 5.07674e-09 0 
0 2.96454e-09 3.76635e-09 0 0 0 0 0 0 
0 0 0 1.4231e-09 0 0 0 0 1.88719e-09 
0 0 0 0 0 0 1.8995e-09 0 1.15942e-09 
0 0 1.09974e-09 0 0 0 0 0 0 
0 0 0 0 0 4.06399e-10 0 0 0 
0 7.09838e-07 0 0 0 0 0 0 0 
0 0 0 0 0 0 0 1.72442e-09 0 
0 0 0 0 0 0 0 0 0 
0 0 0 0 0 0 0 0 0 
0 0 0 0 0 0 0 0 0 
0 0 0 0 0 9.59145e-10 0 0 5.75602e-09 
2.42153e-09 0 1.39225e-09 0 1.54761e-09 0 0 0 0 
0 8.75162e-10 0 0 0 0 0 0 0 
2.15995e-09 0 0 0 0 0 0 0 5.30359e-10 
1.4037e-09 0 0 0 0 0 0 0 0 
0 0 0 0 0 0 0 0 0 
0 0 0 0 9.05544e-10 0 0 0 1.58483e-09 
0 0 0 0 0 0 1.57953e-09 5.08602e-09 0 
0 0 0 0 0 0 0 0 0 
0 0 0 0 0 0 0 0 0 
0 0 0 0 0 0 0 0 0 
0 0 0 5.58027e-10 1.66148e-09 4.75836e-10 0 0 0 
0 0 0 0 0 0 0 0 0 
0 0 0 0 0 0 1.10645e-09 0 0 
0 0 2.25799e-09 0 0 1.74866e-09 0 0 5.2974e-10 
0 0 1.62836e-09 0 0 0 0 0 0 
0 0 0 0 0 0 0 5.1021e-09 0 
0 0 0 0 0 1.90075e-09 0 0 0 
0 0 0 0 0 0 0 0 0 
7.66275e-07 0 0 1.77922e-09 0 0 0 0 0 
0 0 0 0 0 0 0 0 0 
0 0 0 0 0 0 0 0 0 
0 0 0 0 0 1.62524e-09 0 0 0 
1.05239e-09 7.17847e-10 0 0 0 0 0 1.86068e-09 0 
0 0 0 5.19359e-10 0 0 0 0 0 
0 0 0 0 1.90832e-09 0 0 9.39006e-07 0 
0 0 0 0 0 0 0 0 0 
0 0 0 0 0 0 0 0 6.85687e-07 
0 0 0 4.06837e-10 0 0 0 0 0 
0 6.95022e-07 8.40846e-09 0 0 0 0 0 3.04921e-09 
6.27716e-09 0 0 0 0 0 0 0 0 
0 0 0 0 0 0 0 0 0 
0 0 0 0 0 0 0 0 0 
0 0 0 0 5.2249e-10 0 0 1.60591e-09 0 
0 6.74821e-10 0 0 0 2.88817e-10 0 0 0 
1.71954e-09 0 0 0 0 0 0 0 0 
0 0 0 0 0 0 0 0 3.62818e-09 
0 0 2.56872e-09 0 0 0 6.84112e-07 2.17793e-09 0 
1.21981e-09 0 0 0 0 0 0 3.10003e-09 0 
0 0 0 0 0 0 5.10824e-09 0 0 
0 0 1.8795e-09 0 0 0 1.31542e-09 0 0 
0 0 7.74126e-07 1.97123e-09 0 0 0 0 0 
0 0 0 0 0 0 0 0 0 
0 0 0 0 0 0 0 0 0 
0 1.09907e-09 0 0 1.44226e-09 0 0 0 0 
0 0 0 2.18046e-10 0 0 0 0 0 
0 0 3.15294e-09 0 1.27673e-09 0 1.25169e-09 0 0 
0 0 0 0 0 0 0 2.48711e-09 0 
4.71213e-09 0 0 0 2.52231e-09 0 7.66393e-10 2.8023e-09 1.48927e-09 
0 0 1.19395e-09 0 0 0 0 6.93636e-10 0 
0 0 2.0773e-09 0 0 0 1.05054e-08 6.93884e-07 0 
0 0 0 0 0 0 0 8.18679e-10 0 
0 0 4.57766e-09 0 0 6.38665e-10 0 0 0 
0 0 0 0 0 0 0 0 0 
0 0 0 0 0 0 0 0 0 
0 0 0 0 0 0 0 0 0 
7.66539e-07 0 0 0 0 2.26354e-10 0 0 0 
0 0 4.84775e-09 6.85956e-07 0 0 2.13018e-09 3.36413e-09 7.44639e-07 
0 2.89539e-09 1.46913e-09 0 0 0 0 1.34637e-09 0 
0 0 0 0 0 9.40304e-10 0 0 0 
0 0 0 0 0 0 0 0 0 
0 0 1.54131e-09 0 2.35648e-09 0 0 0 3.63907e-09 
0 0 3.17619e-09 0 0 0 0 1.28764e-09 0 
0 0 0 3.24737e-09 0 0 3.22883e-09 0 0 
0 0 0 0 0 0 0 0 0 
0 0 0 0 0 0 0 0 0 
0 0 0 6.99994e-07 0 0 0 0 8.30947e-07 
0 0 0 0 0 0 0 0 0 
0 8.85058e-10 0 1.49068e-09 0 0 0 0 0 
0 0 0 0 0 3.9947e-09 0 0 0 
0 1.38196e-09 3.3701e-09 0 0 0 0 0 0 
0 0 0 8.80527e-10 0 0 0 0 0 
0 1.20337e-09 0 0 0 0 0 0 0 
0 1.12869e-09 0 0 0 6.95935e-07 0 0 1.40325e-09 
0 0 0 0 0 1.13193e-09 0 0 0 
0 0 0 0 0 0 0 0 0 
0 0 0 0 0 0 0 0 0 
0 0 1.92009e-09 4.12675e-09 0 0 0 0 0 
0 0 0 2.52356e-09 0 0 9.68206e-10 0 0 
0 0 0 0 1.36542e-09 0 0 0 0 
1.96176e-09 0 0 0 0 0 2.81332e-09 6.56114e-09 0 
0 0 7.50506e-07 0 0 0 0 0 0 
5.18812e-10 0 0 0 4.249e-09 2.81503e-09 4.64741e-09 1.68091e-09 0 
0 0 7.04044e-10 0 0 0 1.74514e-09 0 0 
7.02934e-10 0 2.59041e-09 0 0 0 0 0 0 
0 0 0 0 0 7.15288e-07 0 0 0 
4.82363e-10 0 0 0 0 0 0 0 0 
0 0 0 0 0 0 0 0 0 
0 0 0 6.74808e-10 0 0 1.443e-09 1.95122e-09 7.58362e-07 
9.00232e-09 0 7.94363e-07 4.97604e-09 2.70339e-09 0 0 0 0 
0 9.98143e-10 0 0 0 0 0 9.96487e-10 0 
0 0 1.59411e-09 0 0 0 0 0 0 
8.80125e-10 0 0 8.65439e-09 0 0 0 0 0 
0 0 0 0 1.24827e-09 0 6.99484e-07 5.39445e-09 3.25993e-09 
0 0 0 0 0 0 6.89769e-07 2.36805e-09 2.00647e-09 
0 0 7.72124e-09 4.07188e-09 2.70334e-09 0 0 0 5.93112e-10 
0 0 1.26806e-09 0 0 0 0 0 0 
0 0 0 0 0 0 0 0 0 
0 0 0 0 0 0 0 0 0 
0 0 0 0 0 0 2.66973e-09 3.01204e-09 0 
0 0 0 0 6.53446e-10 0 0 1.2171e-09 3.36412e-09 
0 0 3.54604e-09 2.12918e-09 0 0 2.3999e-10 0 0 
0 0 0 0 0 0 0 0 0 
0 0 0 7.72468e-07 5.13329e-09 0 0 0 0 
0 0 0 0 0 0 0 2.09614e-09 0 
0 0 0 1.96951e-09 0 0 5.13504e-09 0 3.90728e-09 
0 0 4.57733e-09 6.89942e-07 0 0 1.34591e-09 0 1.15501e-09 
0 0 0 0 2.32603e-09 0 0 0 0 
0 0 0 0 0 0 0 0 0 
0 0 0 0 0 0 0 0 0 
0 0 0 0 0 0 0 0 0 
0 0 0 2.13425e-09 1.4096e-09 0 2.17731e-09 3.64371e-09 0 
0 9.33406e-07 0 0 0 0 0 0 0 
0 0 0 0 0 7.52015e-10 0 0 0 
0 0 0 0 0 0 0 0 0 
0 0 0 8.69525e-10 1.81597e-09 3.2518e-09 2.09058e-09 4.75475e-09 0 
2.64212e-09 0 0 0 0 0 0 0 0 
0 0 0 0 0 7.60147e-10 0 1.03015e-09 0 
0 0 0 0 3.22199e-09 0 0 7.18864e-07 5.01308e-09 
0 0 2.8778e-10 0 0 0 0 0 0 
0 0 0 0 0 0 0 0 0 
0 0 0 0 0 0 0 0 0 
0 1.00398e-09 1.35653e-09 0 1.78803e-09 0 0 0 0 
0 0 9.48713e-07 0 0 0 0 0 1.53597e-09 
0 0 0 0 0 3.27858e-09 0 6.90172e-09 0 
0 0 3.19226e-09 3.21091e-09 0 0 0 0 0 
0 0 0 0 0 1.49919e-09 0 5.42756e-07 0 
0 3.70768e-09 0 0 0 0 2.99708e-09 3.56369e-09 0 
0 0 1.23602e-09 2.36953e-09 0 0 0 0 0 
2.75872e-10 0 0 0 0 0 2.11666e-09 0 0 
0 0 0 0 0 0 0 0 0 
0 0 0 0 0 0 0 0 0 
0 0 0 0 0 0 0 0 0 
0 0 0 0 0 0 0 0 0 
0 0 0 0 0 6.5661e-09 7.28504e-07 4.57232e-09 0 
0 0 0 0 0 0 0 0 0 
0 0 0 0 0 0 0 0 0 
0 0 0 0 0 0 0 0 4.80006e-09 
2.24632e-09 0 0 0 7.99957e-07 0 8.63449e-07 0 0 
0 0 0 0 0 0 0 0 0 
0 0 0 0 0 4.12443e-09 6.96219e-07 0 0 
6.48629e-10 0 0 0 0 0 0 0 0 
0 0 0 0 0 0 0 0 0 
0 0 0 0 0 0 0 0 0 
0 0 0 0 0 0 0 0 0 
2.40042e-09 1.76503e-09 0 0 6.62011e-10 5.36277e-09 1.59811e-09 5.23663e-09 8.98395e-10 
0 2.0209e-09 0 0 0 0 0 0 0 
9.64454e-07 9.80719e-07 0 4.39491e-09 7.87695e-10 0 0 0 5.18758e-09 
0 0 0 0 0 0 0 0 0 
0 1.73665e-09 2.13192e-09 0 0 0 0 4.28145e-09 0 
1.67069e-09 0 0 0 0 0 0 0 0 
0 0 0 0 0 0 2.6627e-09 2.62092e-09 0 
2.64275e-09 3.03698e-09 0 0 0 0 0 0 0 
0 0 0 0 0 0 0 0 0 
0 0 0 0 0 0 0 0 0 
0 0 0 0 0 0 0 0 0 
0 0 0 2.52923e-09 0 0 0 0 0 
0 0 0 0 6.201e-10 0 0 0 0 
0 0 0 0 4.79545e-09 0 0 0 3.98783e-09 
0 0 2.44013e-09 0 4.27353e-09 0 0 0 0 
0 2.88984e-09 0 0 0 0 3.52388e-10 0 4.04963e-09 
9.44665e-07 0 0 7.85822e-07 0 1.78395e-09 1.42213e-09 0 0 
0 0 0 0 0 0 0 0 0 
0 0 0 0 0 0 0 0 0 
0 0 0 0 0 0 0 0 0 
0 0 0 0 0 0 0 0 0 
0 0 0 0 0 0 0 0 0 
0 0 0 4.18081e-09 7.62117e-07 0 9.96256e-09 0 0 
4.75135e-09 4.09133e-09 0 0 0 5.8894e-10 0 0 1.21472e-09 
0 0 0 0 0 0 0 0 0 
0 8.15224e-07 0 0 0 6.99435e-07 0 9.21521e-10 6.23504e-10 
0 8.40032e-10 0 0 1.55135e-09 0 0 0 0 
8.9342e-07 0 0 0 3.09211e-09 0 0 0 0 
0 0 0 0 0 0 0 0 0 
0 0 0 0 0 0 0 0 0 
0 0 0 0 0 0 0 0 0 
0 0 0 0 0 0 0 0 0 
0 0 0 0 0 0 0 0 0 
0 0 1.29862e-09 0 0 0 0 8.34004e-07 5.17569e-09 
0 0 0 6.93806e-07 0 0 1.72676e-09 0 0 
0 1.77059e-09 0 0 7.59518e-07 0 0 0 0 
0 0 1.15314e-08 0 0 0 4.71788e-09 0 1.7949e-09 
0 0 0 0 0 0 0 0 0 
0 0 1.00777e-09 0 8.00282e-07 7.54264e-09 0 0 0 
0 0 0 0 0 0 0 0 0 
0 1.76879e-10 0 0 0 0 0 0 0 
0 0 0 0 0 0 0 0 0 
0 0 0 0 0 0 0 0 0 
0 0 0 0 0 0 1.21445e-09 0 0 
0 0 0 0 3.57299e-10 0 0 0 6.06936e-09 
3.71376e-09 0 0 3.92508e-09 5.00167e-09 0 1.51422e-09 0 0 
0 0 5.9622e-10 0 0 7.4915e-09 0 0 9.04483e-09 
0 9.48164e-07 0 8.81392e-07 2.84597e-09 4.67878e-09 0 5.04079e-10 4.41326e-09 
1.44987e-09 0 0 0 0 0 0 0 0 
0 0 2.9392e-09 0 0 0 0 0 0 
6.56117e-10 0 0 0 0 0 0 0 0 
0 0 0 0 0 0 0 0 0 
0 0 0 0 0 0 0 0 0 
0 0 0 0 0 0 0 0 0 
0 0 0 0 0 0 0 0 0 
6.72369e-10 0 0 3.67083e-10 0 0 2.25221e-09 2.46008e-09 1.15432e-08 
7.81864e-07 0 0 1.69861e-09 0 0 0 1.32588e-09 0 
0 0 0 0 0 0 0 1.02678e-08 0 
0 9.24507e-07 0 0 0 0 0 0 0 
0 0 0 0 0 7.08717e-07 0 3.77577e-09 0 
0 1.98576e-09 0 0 4.67503e-09 0 0 0 0 
0 0 0 0 0 0 0 0 0 
0 0 0 0 0 0 0 8.58009e-10 0 
0 0 0 0 0 0 0 0 0 
0 0 0 0 0 0 0 0 0 
0 0 0 0 0 0 0 6.82404e-07 0 
0 0 0 0 0 0 0 0 0 
0 0 1.83107e-09 0 2.03252e-09 1.31093e-09 2.52514e-09 1.56024e-09 0 
0 7.54963e-10 0 0 0 0 0 0 0 
8.08131e-07 0 0 0 0 1.07005e-09 0 0 0 
0 0 0 1.84157e-09 0 0 5.54301e-09 0 3.98888e-09 
0 0 0 0 0 4.51795e-10 2.82735e-09 0 1.72726e-09 
1.01592e-09 0 0 0 0 0 0 0 0 
0 0 0 0 0 0 0 0 0 
0 0 0 0 0 0 0 0 0 
0 0 0 0 0 0 0 0 0 
0 0 0 0 0 0 0 2.40676e-09 0 
0 0 0 0 0 0 0 0 0 
0 3.87274e-09 0 0 0 0 0 0 0 
0 0 0 0 0 9.79354e-10 0 0 0 
0 0 0 0 0 0 0 1.53558e-09 0 
5.06742e-10 0 0 0 0 0 0 0 0 
5.06289e-09 0 0 9.08585e-07 0 9.03911e-07 9.92808e-09 0 0 
0 0 0 0 0 0 0 0 0 
5.21468e-10 0 0 0 4.03447e-09 0 0 0 0 
2.3512e-09 8.53473e-10 0 0 0 0 0 0 0 
0 0 0 0 0 0 0 0 0 
0 0 0 0 0 0 0 0 0 
0 0 0 0 1.75728e-09 3.32589e-09 0 0 0 
0 0 0 0 0 0 0 0 0 
0 0 0 0 6.33083e-10 0 8.12653e-10 0 0 
2.21433e-09 0 5.26487e-09 0 0 4.5162e-09 0 0 0 
0 0 0 0 0 0 0 0 0 
7.18313e-07 2.99298e-09 0 0 0 9.46939e-07 0 4.30134e-09 2.95788e-09 
0 0 2.81199e-10 0 0 0 0 0 0 
5.30781e-10 0 1.82023e-09 0 4.48412e-09 0 0 0 7.6455e-07 
1.98675e-09 0 0 0 0 0 0 0 0 
0 0 0 0 0 0 0 0 0 
0 0 0 0 0 0 0 0 0 
0 0 0 0 0 0 0 6.82696e-07 0 
0 1.16117e-09 0 0 0 0 1.99813e-10 0 0 
0 0 0 0 6.87741e-07 0 0 0 0 
0 0 0 0 0 9.5761e-07 0 0 0 
0 4.63924e-10 0 0 0 0 0 0 0 
0 1.02251e-08 0 0 0 1.83047e-09 0 0 1.97168e-09 
0 0 0 0 0 0 0 0 0 
1.50564e-09 0 0 0 0 0 7.45452e-07 0 0 
0 0 4.90752e-10 0 0 0 0 0 0 
0 0 0 0 0 0 0 0 0 
0 0 0 0 0 0 0 0 0 
0 0 0 0 0 0 0 0 2.17468e-09 
0 0 0 0 0 0 0 0 0 
0 0 0 0 2.93588e-09 0 0 2.4322e-09 0 
0 0 0 0 0 1.26162e-08 0 0 0 
0 0 0 0 0 0 0 0 1.04875e-09 
0 4.4324e-10 0 0 0 0 0 0 0 
0 0 0 0 0 0 0 0 0 
0 0 1.88435e-09 0 0 0 0 2.06748e-09 0 
5.63218e-09 0 7.58116e-07 0 0 0 0 0 0 
0 0 0 0 0 0 0 0 0 
0 0 0 0 0 0 0 0 0 
0 0 0 0 6.88669e-10 0 0 0 0 
1.97608e-09 0 0 0 0 0 0 0 0 
0 0 0 0 0 0 0 0 8.99535e-10 
0 0 0 0 0 0 0 0 3.45043e-09 
7.67888e-10 0 0 8.2839e-10 0 4.8648e-10 0 0 0 
0 0 0 0 0 0 0 0 3.28938e-09 
3.08978e-09 0 0 0 0 0 0 0 0 
0 0 0 0 0 0 7.31683e-07 0 1.59526e-09 
0 0 4.3683e-09 2.68385e-09 0 0 0 3.8953e-10 0 
0 0 0 0 0 0 0 0 0 
0 0 0 0 0 0 0 0 0 
0 0 0 0 0 0 0 0 6.25013e-10 
0 0 0 0 0 0 0 0 0 
0 0 0 0 0 0 0 0 1.65461e-09 
0 0 0 0 1.98462e-09 9.54918e-09 7.20281e-07 0 0 
1.67672e-09 0 1.29122e-09 0 0 0 0 0 0 
0 0 0 0 0 0 0 8.66522e-10 6.26194e-10 
0 0 0 0 0 0 4.15768e-09 3.44608e-09 1.29037e-09 
0 0 0 6.94255e-07 0 1.81649e-09 0 0 0 
0 0 0 0 0 2.6609e-09 0 0 0 
0 0 0 0 0 0 0 0 0 
0 0 0 0 0 0 0 0 0 
0 0 0 1.56414e-09 0 2.03532e-09 0 0 0 
7.15953e-10 0 0 0 0 0 0 0 0 
0 0 0 0 0 0 6.8767e-07 0 0 
0 0 0 0 0 0 0 0 3.55559e-09 
0 0 0 0 0 0 0 0 0 
0 0 0 0 0 0 0 0 0 
0 0 1.56561e-09 0 0 2.54313e-09 5.42579e-09 6.88666e-07 0 
0 0 0 0 9.66187e-09 4.17243e-09 0 0 0 
0 1.62347e-09 0 0 0 0 0 1.32611e-09 2.00883e-09 
0 0 0 0 0 0 0 0 0 
0 0 0 0 0 0 0 0 0 
0 0 0 0 0 0 6.83238e-07 4.63374e-09 4.07785e-09 
0 0 0 0 0 0 0 0 0 
0 0 0 0 0 0 2.35063e-09 0 0 
0 0 6.35056e-10 0 0 0 0 1.42777e-09 1.81485e-09 
2.72949e-09 0 0 9.89846e-10 0 0 1.69319e-09 7.2019e-07 0 
0 0 0 0 0 0 0 0 0 
0 0 0 0 0 0 0 0 0 
0 0 0 9.61897e-10 0 0 0 0 1.29418e-09 
0 0 0 0 0 0 0 7.01296e-07 0 
0 0 0 0 0 0 0 0 0 
0 0 0 0 0 0 0 0 0 
0 0 0 0 8.68738e-10 0 0 0 2.66878e-09 
0 0 3.12554e-10 0 0 0 0 0 0 
0 0 0 0 0 0 0 0 6.14221e-10 
0 1.40686e-09 0 0 0 0 0 0 0 
0 0 0 0 0 0 2.51756e-09 0 0 
0 0 0 0 0 0 0 0 0 
0 0 0 0 0 6.87738e-07 4.92086e-09 4.88602e-09 0 
0 0 0 0 0 1.06531e-09 0 0 0 
4.06099e-09 0 6.97298e-07 3.41222e-09 0 2.14078e-09 0 1.80793e-09 0 
0 0 0 0 0 0 0 0 0 
0 0 0 0 0 0 0 0 0 
0 0 0 0 0 0 0 0 0 
1.77747e-09 9.98706e-10 0 0 0 0 0 0 0 
0 0 0 0 0 0 0 0 0 
1.47885e-09 4.86223e-10 1.11291e-09 0 0 0 0 0 0 
0 0 0 1.74259e-09 0 0 0 0 4.81288e-09 
0 0 0 1.06108e-06 9.80417e-07 0 9.44957e-10 0 0 
0 0 0 0 0 0 0 0 1.64299e-09 
1.18437e-09 1.36917e-09 0 0 0 0 7.40183e-10 0 0 
0 0 0 0 0 0 0 0 0 
0 0 0 3.09296e-10 0 0 0 0 0 
0 0 0 0 0 0 0 0 0 
0 0 0 0 0 0 0 0 2.62652e-09 
1.04927e-09 0 0 0 0 0 0 0 0 
0 0 0 0 0 0 1.26388e-09 9.58437e-10 7.05144e-10 
0 0 5.94993e-10 0 0 0 0 0 0 
7.10525e-10 6.30877e-10 0 0 0 0 0 0 0 
0 0 0 8.91933e-07 0 0 8.11236e-09 0 0 
6.80883e-10 0 0 0 0 0 0 0 8.05507e-10 
0 0 0 0 0 0 0 0 0 
3.26204e-09 1.07488e-09 1.90857e-09 0 0 0 1.33e-09 0 1.74784e-09 
0 0 2.15998e-09 0 0 1.65233e-10 0 0 0 
0 0 0 0 0 0 0 0 0 
0 0 0 0 0 0 0 0 0 
0 0 0 0 0 0 0 0 0 
9.48698e-10 0 0 0 0 0 2.20346e-09 0 0 
0 0 0 4.13419e-10 0 0 4.57904e-09 6.85931e-07 0 
0 0 0 0 0 0 0 0 0 
7.12366e-07 0 4.20882e-09 0 0 0 0 0 0 
0 0 0 0 0 0 0 0 0 
0 0 0 0 0 0 0 0 0 
7.0756e-07 0 0 0 0 0 0 0 0 
0 6.9713e-07 0 0 0 0 0 0 0 
0 0 0 0 0 0 0 0 0 
0 0 0 0 0 0 0 0 0 
0 0 0 6.68581e-09 0 0 0 0 0 
0 0 0 0 0 6.77428e-09 7.21368e-07 0 0 
6.34019e-10 8.15571e-10 0 1.07453e-09 0 0 0 3.71403e-09 0 
2.84738e-09 0 0 9.85264e-11 0 0 0 1.90842e-09 0 
0 6.4603e-09 0 0 0 0 0 3.94455e-09 0 
0 9.785e-10 0 0 0 0 0 0 0 
0 0 0 0 0 3.91077e-10 0 0 0 
0 0 0 2.94888e-09 0 0 0 0 0 
0 1.23067e-08 0 0 0 0 0 0 0 
0 0 0 0 0 0 0 0 0 
0 0 0 0 0 0 0 0 0 
0 0 0 6.83119e-07 0 0 0 1.02591e-09 4.34169e-10 
0 0 0 0 7.22266e-07 0 0 0 0 
0 0 0 0 0 0 0 4.03638e-09 0 
2.53126e-09 2.69541e-09 0 0 0 0 0 0 6.96663e-07 
5.06675e-09 3.6161e-09 0 0 0 0 0 1.9927e-09 0 
0 0 0 0 0 0 0 0 0 
0 0 0 0 0 0 0 0 2.23731e-09 
0 0 0 0 0 2.68177e-09 0 0 5.66868e-09 
0 5.19466e-10 2.75514e-09 0 0 0 1.19619e-09 0 0 
0 0 0 0 0 0 0 0 0 
0 0 0 0 0 0 0 0 0 
0 0 0 0 2.17462e-09 0 0 0 1.15575e-09 
0 0 0 8.22782e-10 0 0 1.33207e-09 0 0 
0 2.33429e-09 0 1.83333e-09 0 0 4.00685e-09 0 0 
2.56843e-09 0 9.21232e-10 0 0 0 0 0 0 
0 2.57014e-09 1.52253e-09 0 0 1.53052e-09 0 0 0 
0 0 1.89686e-09 7.09999e-07 5.39711e-09 0 0 0 0 
0 0 0 0 0 0 0 0 0 
0 0 0 0 0 1.61301e-09 0 2.45701e-09 0 
6.92016e-07 0 0 0 2.07294e-09 1.18327e-09 0 0 3.93543e-10 
0 0 0 0 0 0 0 0 0 
0 0 0 0 0 0 0 0 0 
0 0 0 0 0 8.13536e-10 8.63752e-10 0 1.14922e-09 
0 8.7282e-10 0 3.51495e-09 0 0 0 0 2.12809e-09 
2.36063e-09 2.69004e-09 7.87957e-07 4.11356e-09 0 3.90662e-09 0 7.04133e-07 2.75296e-09 
0 0 0 4.83038e-10 1.53272e-09 2.55766e-09 1.54019e-09 0 0 
0 2.48521e-09 0 0 0 0 0 0 0 
0 0 0 0 0 0 0 0 1.0275e-09 
0 0 0 0 0 0 0 0 0 
0 0 0 1.05725e-06 1.16695e-06 0 0 0 0 
0 0 0 0 4.40101e-10 0 0 0 0 
0 0 0 0 0 0 0 0 0 
0 0 0 0 0 0 0 0 0 
0 0 0 0 0 0 0 0 0 
0 8.70169e-10 0 0 0 7.54315e-07 2.29306e-09 0 2.08144e-09 
0 0 4.90735e-09 0 0 0 0 0 2.24987e-09 
2.63248e-09 0 0 0 0 7.14193e-07 0 1.40221e-09 1.80333e-09 
0 0 0 0 0 0 0 0 0 
0 0 0 0 0 0 4.01616e-09 0 0 
0 0 3.53477e-10 0 0 0 0 0 0 
0 0 0 0 0 1.01899e-06 0 0 4.48063e-09 
1.80838e-09 0 0 0 0 1.30989e-09 0 0 8.19033e-07 
0 0 1.65133e-09 0 0 0 0 0 0 
0 0 0 0 0 0 0 0 0 
0 0 0 0 0 0 0 0 0 
0 0 0 0 5.8069e-10 0 0 0 0 
0 2.76304e-09 0 0 7.94374e-07 0 2.36501e-09 0 3.27368e-09 
0 0 0 4.39687e-09 0 0 0 0 0 
2.70231e-09 0 0 0 0 8.36489e-10 0 0 0 
0 0 0 0 0 0 0 7.2385e-07 0 
0 2.24292e-09 0 0 0 0 0 0 0 
0 0 0 1.66207e-09 0 0 0 0 0 
2.64136e-09 4.37017e-09 0 0 0 0 0 0 0 
0 8.23299e-07 0 0 0 0 0 0 0 
0 0 0 0 0 0 0 0 0 
0 0 0 0 0 0 0 0 0 
0 0 5.54561e-10 0 0 5.96314e-09 7.41166e-07 3.55224e-09 0 
4.26086e-09 0 7.20301e-10 2.47107e-09 0 0 0 0 1.94418e-09 
0 0 4.49108e-09 7.05553e-07 0 1.18847e-09 0 1.52309e-09 0 
0 0 1.4179e-09 0 1.71696e-09 0 0 0 0 
0 0 2.62898e-09 8.16112e-07 8.98329e-09 0 0 0 0 
1.90424e-09 0 8.30285e-09 0 1.19122e-09 0 0 8.67542e-10 1.40705e-09 
0 0 1.42927e-09 0 0 0 1.05965e-09 4.9534e-09 8.98127e-10 
0 7.09728e-07 2.6367e-09 2.27473e-09 0 1.5646e-09 0 0 0 
0 0 0 3.40719e-09 0 0 0 0 0 
0 0 0 0 0 0 0 0 0 
0 0 0 0 0 0 0 0 0 
5.38249e-11 0 0 0 0 0 3.0763e-09 0 0 
0 0 0 0 0 0 0 0 3.30288e-09 
0 0 1.33501e-09 0 0 1.09822e-08 0 1.52542e-09 0 
7.1421e-07 0 2.36471e-09 0 0 2.9673e-09 0 0 0 
0 0 0 0 0 8.18614e-07 0 1.69715e-09 0 
0 0 0 4.82758e-09 0 0 2.67436e-09 0 0 
2.45953e-10 6.60043e-10 0 0 0 0 2.01994e-09 0 0 
0 3.24535e-09 0 1.81554e-09 0 0 0 0 0 
0 0 0 0 3.02304e-09 0 0 0 0 
0 0 0 0 0 0 0 0 0 
0 0 0 0 0 0 0 0 0 
0 0 0 0 0 0 0 0 0 
0 1.46743e-09 0 3.31416e-10 0 5.16817e-10 0 0 7.16597e-07 
0 0 1.89928e-09 2.52978e-09 0 0 0 4.3818e-09 0 
0 0 0 3.00697e-09 0 0 7.02663e-07 0 2.65803e-09 
0 0 0 1.7889e-09 0 0 0 0 0 
0 0 0 0 1.00581e-06 1.03708e-06 1.91563e-09 0 0 
0 0 4.11958e-09 0 0 0 0 2.96669e-10 0 
0 2.38785e-09 3.24364e-09 0 0 0 0 0 0 
0 0 5.80771e-09 0 2.56273e-09 0 0 0 0 
0 0 0 0 0 0 0 0 0 
0 0 0 0 0 0 0 0 0 
0 0 0 0 0 0 0 0 0 
0 0 0 6.62586e-10 0 0 0 0 0 
0 0 0 9.64989e-10 0 0 0 0 0 
0 0 0 1.3766e-09 0 9.7406e-10 0 0 0 
1.95637e-09 1.47594e-09 0 0 0 0 2.06367e-09 0 0 
0 0 0 0 0 0 0 0 0 
0 0 0 0 0 4.65506e-09 0 0 0 
1.704e-09 0 0 0 0 0 1.33894e-09 0 0 
4.15992e-09 0 0 5.3653e-09 8.83364e-07 0 0 0 0 
0 0 0 0 0 0 0 0 0 
0 0 0 0 0 0 0 0 0 
0 0 0 0 0 2.0031e-10 0 0 0 
0 9.52975e-10 0 0 0 0 0 0 0 
0 0 0 2.91349e-09 0 0 0 0 0 
0 0 1.35528e-09 0 0 3.86716e-09 3.42508e-09 0 3.01175e-09 
0 0 1.5005e-09 0 0 0 0 0 0 
0 0 0 0 0 0 0 1.08158e-06 1.0875e-08 
0 0 0 0 2.56841e-09 0 0 0 2.56048e-09 
9.93317e-10 6.22903e-10 0 2.40106e-09 0 0 0 0 0 
0 0 4.23962e-09 0 1.05757e-06 0 0 0 1.34328e-09 
0 0 0 0 0 0 0 0 0 
0 0 0 0 0 0 0 0 0 
0 0 0 0 0 0 5.43329e-10 0 0 
8.03197e-09 0 0 5.31981e-10 0 0 0 0 6.90901e-07 
3.15622e-09 0 0 2.09827e-09 0 0 2.03124e-09 0 1.00884e-09 
0 0 0 0 0 1.09064e-09 0 7.14053e-07 0 
0 0 0 0 0 0 0 0 0 
9.6442e-10 0 0 0 2.58998e-09 0 0 0 1.0128e-06 
0 0 0 0 7.99928e-07 0 0 0 0 
0 0 0 0 0 0 0 2.18838e-09 0 
0 7.20821e-07 1.5855e-09 0 0 9.87038e-07 0 0 0 
1.16383e-09 0 0 0 0 0 0 0 0 
0 0 0 0 0 0 0 0 0 
0 0 0 0 0 0 0 0 0 
0 0 0 0 0 0 9.32504e-10 0 0 
3.1544e-09 2.23181e-09 0 0 0 0 0 0 0 
0 0 0 0 0 0 0 0 0 
0 1.27972e-09 2.92544e-09 0 0 2.72016e-09 0 0 0 
0 0 0 2.27832e-09 0 0 0 0 0 
6.98916e-09 0 0 1.0216e-06 0 0 0 4.15993e-09 0 
1.07885e-09 4.98067e-09 0 2.17538e-09 3.37547e-09 0 7.07138e-07 0 0 
2.34627e-09 4.28069e-10 4.51278e-09 1.90463e-09 3.66216e-09 0 0 0 0 
0 0 0 0 0 0 0 0 0 
0 0 0 0 0 0 0 0 0 
0 0 0 0 0 0 7.18202e-10 4.63413e-10 0 
0 5.54476e-09 7.20196e-07 4.87161e-09 0 4.9224e-10 0 0 0 
2.8533e-10 0 4.09485e-09 9.07646e-10 0 0 0 0 6.91635e-07 
0 1.6953e-09 0 0 0 0 0 0 0 
0 0 7.45265e-09 7.89326e-07 0 4.44339e-09 0 0 0 
0 0 0 1.55877e-09 0 1.10318e-09 0 3.1927e-10 0 
0 0 0 0 9.80936e-07 0 0 4.65343e-09 0 
7.42671e-07 0 1.58607e-09 7.3067e-07 4.75588e-09 0 0 5.25043e-09 2.82908e-09 
0 2.55115e-09 4.2763e-09 0 0 0 0 0 2.19056e-09 
0 8.4044e-10 0 0 0 0 0 0 0 
0 0 0 0 0 0 0 0 0 
0 0 0 0 0 0 0 0 0 
0 0 0 0 0 0 0 0 0 
0 0 7.97499e-10 0 0 0 0 0 0 
0 0 0 0 0 0 0 0 0 
1.40566e-09 0 0 0 0 0 8.20614e-07 0 1.29942e-09 
0 0 0 0 0 0 0 0 0 
0 0 0 0 0 0 0 0 0 
0 0 0 1.06832e-09 4.87488e-09 0 6.46505e-09 0 0 
0 0 0 0 0 5.77933e-09 4.50967e-09 0 9.41779e-10 
0 0 0 0 0 0 0 0 0 
0 0 0 0 0 0 0 0 0 
0 0 0 0 0 0 0 0 0 
0 0 0 0 0 4.01962e-09 0 0 0 
0 0 3.48534e-09 6.40082e-10 0 0 0 0 1.19888e-09 
0 0 0 0 0 0 0 0 0 
0 0 2.90711e-09 1.61471e-09 0 0 0 0 3.07315e-09 
3.32241e-09 0 0 0 7.23233e-07 0 0 0 0 
0 1.00584e-09 0 0 0 0 0 0 0 
0 0 0 0 0 0 0 7.43466e-09 0 
1.16701e-09 0 4.71884e-09 0 0 8.33813e-07 0 0 0 
0 0 0 0 0 0 0 0 0 
0 0 0 0 0 0 0 0 0 
0 0 0 0 0 0 0 0 0 
1.06179e-09 0 0 9.38549e-07 9.57608e-07 0 0 0 0 
0 0 0 6.96569e-09 0 0 0 0 2.67399e-10 
2.41638e-09 0 0 2.07197e-09 0 0 0 0 0 
0 0 0 0 0 0 0 9.45434e-07 0 
0 0 0 0 5.47742e-09 1.98873e-09 0 0 7.17392e-07 
0 1.63408e-09 0 0 7.01623e-07 0 0 0 0 
0 0 0 2.67325e-09 0 0 4.1058e-09 0 0 
0 0 7.28299e-07 0 0 0 0 8.19858e-07 0 
0 0 0 0 0 0 0 0 0 
0 0 0 0 0 0 0 0 0 
0 0 0 0 0 0 0 0 0 
0 0 0 0 0 0 6.10263e-09 0 0 
1.87659e-09 2.15081e-09 0 0 0 6.83657e-07 8.40291e-09 0 0 
0 9.34452e-10 0 2.05077e-09 6.9073e-07 3.11176e-09 1.87546e-09 0 0 
0 0 0 0 0 0 0 0 0 
0 0 0 0 5.27867e-09 0 0 0 0 
0 6.3672e-09 0 0 0 0 0 1.10406e-09 0 
1.88879e-09 0 6.9984e-07 0 0 0 2.75244e-09 8.89185e-10 0 
0 0 0 2.82065e-09 0 1.485e-09 0 0 0 
0 0 0 0 0 0 0 0 0 
0 0 0 0 0 0 0 0 0 
0 0 0 0 0 0 0 0 0 
0 0 0 0 2.023e-09 0 0 0 0 
0 0 1.66579e-09 4.84561e-10 0 0 1.82132e-09 0 1.77411e-09 
0 0 0 0 0 3.57683e-09 0 0 0 
6.99053e-10 0 0 0 0 0 0 1.06877e-06 1.24844e-06 
1.13262e-06 0 0 1.85315e-09 8.29237e-07 0 0 0 0 
0 0 3.41466e-09 0 0 0 0 0 0 
0 0 2.36705e-09 2.64156e-09 0 1.11807e-09 3.75349e-09 0 0 
1.30158e-09 0 0 0 0 0 0 1.7699e-09 1.1603e-09 
3.36242e-09 0 1.07143e-09 0 0 0 0 0 0 
0 0 0 0 0 0 0 0 0 
0 0 0 0 0 0 0 0 0 
0 0 0 0 0 5.71104e-09 0 0 7.80691e-09 
9.37268e-07 0 0 1.60731e-09 0 0 0 0 0 
0 0 0 0 0 8.63836e-10 2.13239e-09 0 0 
3.30172e-10 0 0 0 0 0 0 0 0 
2.28484e-09 0 0 0 0 0 6.48224e-09 7.84633e-07 0 
0 4.25085e-09 0 0 0 0 0 0 0 
0 9.65512e-10 0 0 0 0 0 0 7.03625e-07 
0 0 0 0 2.86449e-09 1.22077e-09 0 0 0 
0 0 0 0 0 0 0 0 0 
0 0 0 0 0 0 0 0 0 
0 0 0 0 0 0 0 0 0 
0 0 0 0 0 0 0 0 4.34016e-09 
0 9.25479e-07 0 6.14724e-10 0 0 0 1.37701e-09 0 
1.12328e-09 0 0 0 0 0 1.12247e-09 0 1.14164e-09 
0 0 0 0 0 0 0 0 0 
0 1.83681e-09 0 2.53408e-09 0 7.91496e-07 0 0 4.33336e-09 
0 0 0 0 4.94454e-10 0 0 0 0 
0 0 0 0 0 0 0 0 0 
0 0 2.11912e-09 0 0 2.12211e-09 0 0 0 
0 0 0 5.71685e-10 0 0 0 0 0 
0 0 0 0 0 0 0 0 0 
0 0 0 0 0 0 0 0 0 
0 0 0 0 0 0 9.28661e-10 0 0 
0 0 2.01863e-08 0 2.85901e-09 0 0 0 0 
0 2.97155e-10 0 0 0 0 0 0 0 
0 0 0 1.3503e-09 0 0 0 2.73957e-09 0 
4.7023e-09 7.57531e-07 2.59822e-09 0 0 0 6.72119e-09 0 6.52594e-09 
0 0 0 0 0 0 0 0 0 
0 0 0 0 0 0 0 0 0 
1.49797e-09 0 0 7.50077e-10 0 2.42253e-09 2.50472e-09 0 8.73567e-10 
1.24065e-09 0 0 0 0 0 0 0 0 
0 0 0 0 0 0 0 0 0 
0 0 0 0 0 0 0 0 0 
0 0 0 0 0 0 0 0 0 
0 0 2.09976e-09 0 0 0 6.53381e-10 0 0 
0 0 0 0 0 0 0 0 0 
0 0 0 0 0 3.42231e-09 6.86158e-07 6.29587e-09 1.4127e-09 
0 4.46289e-09 2.05995e-09 0 1.08062e-09 1.75278e-09 0 2.18334e-09 0 
1.28922e-09 0 0 0 3.02487e-09 9.21778e-07 0 4.24096e-09 0 
0 0 0 0 0 0 0 0 0 
0 2.87217e-10 0 0 0 0 0 0 2.62393e-09 
0 0 1.26529e-10 0 0 0 0 0 0 
0 0 0 0 0 0 0 0 0 
0 0 0 0 0 0 0 0 0 
0 0 0 0 0 0 0 4.3392e-09 0 
0 1.16006e-09 0 1.09254e-09 0 0 0 0 0 
0 3.61272e-10 0 0 0 0 0 0 0 
0 0 0 0 0 0 9.64962e-10 3.5683e-09 0 
0 0 0 1.99196e-09 0 0 0 0 0 
0 0 0 0 0 0 0 0 0 
0 0 6.00461e-10 0 0 0 0 0 0 
0 0 0 0 4.66075e-10 0 1.52775e-09 0 6.92158e-07 
0 1.98907e-09 0 0 0 0 0 0 0 
0 0 0 0 0 0 0 0 0 
0 0 0 0 0 0 0 0 0 
0 0 0 0 0 0 1.08259e-09 0 6.82594e-07 
0 0 1.26472e-09 0 2.51464e-09 3.60412e-09 0 0 1.24386e-09 
9.16059e-10 0 0 0 0 0 0 0 0 
0 0 0 0 0 0 0 0 0 
0 0 0 0 0 0 0 0 0 
0 0 0 0 0 1.6421e-09 0 5.40205e-09 0 
1.93951e-09 0 0 0 4.74138e-09 0 0 0 0 
0 0 0 0 0 0 0 0 3.52416e-09 
2.42426e-09 0 0 0 0 0 0 0 0 
0 0 0 0 0 0 0 0 0 
0 0 0 0 0 0 0 0 0 
0 0 0 0 0 0 5.66906e-10 0 2.27981e-09 
1.82791e-09 0 8.84887e-10 9.81918e-10 0 0 1.09084e-09 0 0 
0 0 0 0 0 0 0 0 0 
0 0 0 0 9.12194e-10 0 0 0 1.35482e-09 
1.01246e-09 0 0 0 0 9.90691e-10 0 0 0 
0 0 0 0 0 0 0 0 0 
0 0 2.91097e-09 0 1.4491e-09 7.26284e-07 0 3.40842e-09 0 
0 0 0 0 0 0 0 0 0 
0 0 0 0 0 0 0 1.34879e-09 0 
0 0 0 0 0 0 0 0 0 
0 0 0 0 0 0 0 0 0 
0 0 0 0 0 0 0 0 0 
0 2.38143e-09 2.06248e-09 1.28043e-09 0 0 0 3.17635e-09 6.99762e-07 
0 0 0 1.37105e-09 0 0 0 0 0 
0 0 0 0 4.83766e-10 0 0 0 0 
0 0 0 0 0 0 3.82725e-10 4.7916e-10 0 
0 0 0 0 0 0 0 0 1.41286e-09 
6.68545e-10 0 2.65384e-09 6.6265e-10 0 1.12746e-09 0 0 3.7771e-09 
0 0 0 0 0 0 0 0 0 
0 0 0 0 0 0 0 0 0 
0 0 0 6.85755e-10 0 0 0 0 0 
0 0 0 0 0 0 0 0 0 
0 0 0 0 0 0 0 0 0 
0 0 0 0 1.14254e-09 0 0 0 0 
0 0 4.5853e-09 0 7.15551e-07 0 0 1.83028e-09 0 
0 0 0 0 0 0 0 1.10377e-09 0 
0 0 0 0 0 0 0 2.71631e-09 0 
0 0 0 0 0 5.0583e-10 0 0 0 
0 0 0 0 6.24332e-09 7.2245e-07 6.9857e-09 0 0 
4.82842e-09 0 0 0 0 0 0 0 0 
0 0 2.38272e-09 0 6.92242e-07 4.71901e-09 0 0 0 
0 2.16169e-09 0 0 0 1.29472e-10 0 0 0 
0 0 0 0 0 0 0 0 0 
0 0 0 0 0 0 0 0 0 
0 0 0 2.43675e-10 0 0 0 0 0 
0 0 0 0 0 0 4.28142e-10 0 0 
0 0 0 0 3.67303e-09 0 0 2.63057e-09 0 
2.44836e-09 0 3.21439e-09 0 0 0 0 0 0 
5.112e-09 0 0 0 0 0 0 0 0 
6.86045e-07 5.15888e-09 0 1.91315e-09 0 0 0 0 0 
1.6604e-08 7.04074e-07 0 2.76818e-09 0 0 0 0 0 
0 0 0 0 0 1.68954e-09 0 0 0 
0 0 9.16471e-07 0 0 0 0 0 0 
0 0 0 0 0 0 0 0 0 
0 0 0 0 0 0 0 0 0 
0 0 0 0 0 0 0 0 0 
0 0 0 0 0 0 5.38415e-09 0 0 
1.68869e-09 0 0 0 0 0 7.12764e-07 0 4.42133e-09 
0 0 0 0 0 0 2.5195e-09 8.4351e-10 0 
0 1.3573e-09 0 0 0 0 0 0 8.5511e-10 
0 0 2.07661e-09 0 9.65765e-10 0 0 0 0 
0 0 2.18257e-09 3.09212e-09 0 0 0 0 0 
0 0 0 0 0 0 0 0 1.35712e-09 
1.11381e-09 3.01189e-09 0 9.1614e-07 5.76061e-09 0 0 0 0 
0 0 0 0 0 0 0 0 0 
0 0 0 0 0 0 0 0 0 
0 0 0 0 0 0 0 0 1.35267e-09 
0 2.41378e-09 0 0 0 8.2302e-09 7.40548e-07 3.01689e-09 2.92096e-09 
0 2.76811e-09 0 0 0 0 0 0 0 
0 0 0 8.72981e-07 0 1.59164e-09 0 2.35604e-09 0 
0 0 4.94245e-10 0 0 0 0 0 0 
2.74659e-09 0 0 0 0 0 0 0 0 
0 0 0 0 0 0 0 0 0 
0 0 0 0 0 0 2.23263e-09 0 0 
0 0 0 0 0 0 0 7.85493e-10 0 
0 0 0 0 0 0 0 0 0 
0 0 0 0 0 0 0 0 0 
0 0 0 0 0 0 4.08383e-09 1.51768e-09 5.38717e-09 
4.07176e-10 1.41616e-09 0 3.1674e-09 8.70223e-07 0 0 0 3.51372e-09 
4.69627e-10 0 0 0 0 0 0 0 0 
0 0 7.85978e-07 0 2.94639e-09 8.43158e-07 1.03348e-08 0 0 
2.03732e-09 2.31629e-09 0 0 0 0 0 0 0 
0 0 0 0 0 0 5.91847e-10 0 0 
0 0 0 0 0 0 0 0 0 
0 0 0 0 0 0 0 0 0 
0 0 0 0 0 0 2.35608e-09 2.6478e-09 0 
0 0 0 0 0 0 0 0 0 
0 0 0 0 0 0 0 0 0 
0 0 0 0 0 0 0 0 0 
0 0 0 0 9.4889e-07 4.27386e-09 0 0 0 
0 0 0 0 0 0 0 7.00909e-07 1.91979e-09 
0 0 3.64649e-09 8.84171e-09 0 0 0 0 4.33293e-09 
0 0 0 0 0 0 0 8.37734e-10 0 
0 0 0 0 7.8734e-10 0 0 0 0 
0 0 0 0 0 0 0 0 0 
0 0 0 0 0 0 0 0 0 
0 0 0 0 0 0 0 0 0 