# vtk DataFile Version 5.1
vtk output
ASCII
DATASET STRUCTURED_POINTS
DIMENSIONS 50 50 1
SPACING 1 1 1
ORIGIN 0 0 0
POINT_DATA 2500
FIELD FieldData 6
feature_1 1 2500 float
0 0 0 0 0 0 0 0 0 
0 0 0 0 0 0 0 0 0 
0 0 1.41525e-11 0 0 0 0 0 0 
0 0 0 0 0 0 0 0 0 
0 0 0 0 0 0 0 0 0 
0 0 0 0 0 0 0 0 0 
0 0 0 0 0 0 0 0 0 
0 0 0 0 0 0 0 0 0 
0 0 0 0 0 0 0 0 0 
0 0 0 0 0 0 0 0 0 
0 0 0 0 0 0 0 0 0 
0 0 0 0 0 0 0 0 0 
0 0 0 0 0 0 0 0 0 
0 0 0 0 0 0 0 0 0 
0 0 0 0 0 0 0 0 0 
0 0 0 0 0 0 0 0 0 
0 0 0 0 0 0 0 0 0 
0 0 0 0 0 0 0 0 0 
0 0 0 0 0 0 0 5.27767e-12 0 
0 0 0 0 0 0 0 0 0 
0 0 0 0 0 0 0 0 0 
5.67481e-12 0 0 0 0 0 0 0 0 
0 0 0 0 0 0 0 0 0 
0 0 0 0 0 0 0 0 0 
0 0 0 0 0 0 0 0 0 
0 0 0 0 0 0 0 0 0 
1.69251e-13 0 0 0 0 0 0 0 0 
0 0 0 0 0 0 0 0 0 
0 0 0 0 0 0 0 0 0 
0 0 0 0 0 0 0 0 0 
0 0 0 0 0 0 0 0 0 
0 0 0 0 0 0 0 0 0 
0 0 0 0 0 0 0 0 0 
0 0 0 0 3.41705e-12 0 0 0 0 
0 0 0 0 0 0 0 0 0 
0 0 0 0 0 0 0 0 0 
1.88403e-10 0 0 0 1.07055e-08 0 0 0 0 
0 0 0 0 0 0 0 0 0 
0 0 0 0 0 0 0 0 0 
0 0 0 0 0 0 0 0 0 
1.12493e-09 0 0 0 0 0 0 0 3.25773e-08 
0 0 0 0 0 0 7.5445e-09 0 6.77766e-06 
5.26193e-08 0 2.67468e-09 0 0 0 0 0 0 
0 0 0 0 0 0 0 0 0 
0 0 0 0 0 0 0 0 0 
0 1.39808e-08 2.91718e-08 0 0 0 0 0 0 
0 0 0 0 6.79836e-06 3.03152e-08 0 0 0 
0 0 2.96188e-09 1.24014e-08 0 0 0 0 0 
0 0 0 0 0 0 0 0 0 
0 0 0 0 0 0 0 0 0 
0 0 0 0 0 0 0 2.02909e-09 0 
0 0 0 0 0 0 0 0 0 
1.66631e-08 0 0 0 0 0 0 0 0 
4.91667e-09 0 0 0 0 0 0 0 0 
0 0 0 0 0 0 0 0 0 
0 0 0 0 0 0 0 0 0 
0 0 0 0 0 0 0 3.34938e-09 1.68218e-08 
0 0 0 7.19047e-06 0 0 0 0 0 
0 0 1.70676e-10 0 0 0 0 0 8.69244e-09 
0 0 0 0 0 0 0 0 0 
6.87105e-06 0 0 0 0 0 0 0 0 
0 0 0 0 0 0 0 0 0 
0 0 7.193e-06 3.1996e-08 0 7.02879e-06 0 7.36297e-06 0 
0 0 0 0 0 0 0 0 0 
0 6.20864e-09 0 0 7.35971e-09 0 0 8.40224e-06 0 
0 0 6.88902e-06 0 2.84825e-13 3.97375e-08 0 0 0 
0 0 0 0 0 0 0 0 0 
0 0 0 0 0 6.00822e-08 7.16463e-06 0 0 
0 0 0 0 5.86442e-09 0 2.09475e-09 0 0 
0 0 1.08347e-08 0 0 0 0 0 0 
0 0 0 0 0 0 0 3.56113e-08 0 
6.93785e-06 0 7.56386e-09 0 0 0 0 0 0 
0 0 0 0 0 0 0 0 0 
0 0 2.5886e-08 0 0 0 1.26227e-09 0 0 
0 0 0 0 0 0 6.5644e-09 3.85384e-09 0 
0 0 0 0 1.74387e-09 0 0 0 0 
0 0 0 1.16873e-08 0 0 0 0 9.02375e-10 
0 0 0 0 0 0 0 0 0 
0 0 0 0 0 0 0 8.45338e-09 0 
0 0 0 0 0 0 0 0 0 
0 2.30174e-09 0 1.94335e-08 2.17764e-08 0 0 0 0 
0 1.92422e-08 3.88549e-08 0 1.77108e-09 0 5.45359e-09 0 1.33034e-09 
0 0 0 0 0 0 0 0 0 
0 0 0 0 0 0 0 0 0 
0 0 0 0 0 6.92715e-06 0 2.61911e-07 0 
0 9.95706e-09 0 0 0 0 0 0 0 
4.09494e-09 0 0 0 0 7.03161e-10 0 6.87537e-06 6.15161e-08 
0 0 0 0 0 0 0 0 0 
0 0 0 0 0 0 0 0 0 
0 0 0 0 0 0 0 0 0 
0 0 0 0 0 0 0 0 0 
0 2.07215e-08 6.80182e-06 0 0 0 0 0 0 
0 0 0 0 5.36783e-08 0 0 0 0 
0 0 0 0 0 0 0 0 0 
0 0 0 0 0 0 0 0 0 
0 0 0 0 0 0 0 0 0 
7.46127e-06 0 0 0 0 0 0 0 0 
0 0 2.30927e-08 0 0 0 0 0 0 
0 0 0 0 6.10303e-07 0 0 0 0 
0 0 0 0 0 0 0 0 0 
0 0 0 0 0 0 0 0 0 
0 0 6.84391e-06 0 0 0 0 0 0 
0 0 0 0 0 0 6.98775e-06 0 0 
8.79394e-09 0 0 0 0 8.11181e-06 0 0 7.50702e-06 
0 7.56735e-06 0 0 0 0 0 0 0 
0 0 0 0 0 0 0 0 0 
0 4.15698e-10 0 0 0 0 0 0 0 
0 0 7.08632e-06 0 7.2332e-06 7.86666e-08 8.61047e-06 0 0 
0 0 0 0 0 7.24086e-09 1.71012e-09 0 0 
0 5.52798e-08 0 0 0 0 0 0 0 
0 0 0 0 0 0 0 0 0 
0 0 0 0 0 0 0 0 0 
0 0 0 7.06014e-09 0 0 0 0 1.9788e-08 
0 0 0 8.41805e-06 4.39305e-08 0 3.60768e-09 8.96462e-09 0 
0 0 1.60252e-09 0 0 0 0 0 7.42148e-06 
0 0 7.44184e-06 2.36283e-08 0 0 0 0 0 
0 0 0 0 0 0 0 0 0 
0 0 0 0 0 0 0 0 0 
0 9.35768e-09 0 0 0 0 0 0 3.64686e-08 
1.34712e-08 2.52845e-09 0 0 0 0 0 0 6.54085e-09 
3.50498e-13 0 0 7.5451e-06 0 0 0 2.72544e-08 9.92922e-09 
0 0 3.52573e-11 0 0 0 0 0 0 
0 0 0 0 0 0 0 0 2.59584e-08 
8.01862e-06 0 0 0 3.33251e-10 0 0 6.79478e-06 0 
0 0 0 0 2.40647e-08 0 0 0 0 
0 0 0 0 0 1.23683e-08 0 0 6.63917e-08 
0 0 0 0 8.07298e-09 0 0 0 0 
0 0 0 0 0 0 0 0 0 
0 0 0 0 0 0 0 0 0 
0 0 8.83015e-09 0 0 0 2.97692e-08 6.86875e-06 0 
0 0 0 0 0 0 7.18348e-06 0 0 
5.14064e-09 0 0 7.14532e-06 0 7.12535e-06 0 0 6.84175e-06 
3.04172e-08 0 0 0 0 0 0 0 0 
0 0 0 0 0 0 0 0 0 
0 0 0 0 0 0 0 2.91981e-09 2.92353e-09 
2.54775e-09 0 0 0 0 0 0 0 0 
0 1.11339e-09 0 7.20545e-06 0 0 7.36372e-09 0 3.00922e-08 
0 0 0 1.15104e-08 0 0 2.47257e-09 0 0 
0 0 0 0 0 0 0 0 0 
0 0 0 0 0 9.97002e-10 0 0 0 
0 0 0 0 0 1.40584e-09 0 0 0 
6.95256e-06 0 0 0 0 0 0 0 0 
1.78029e-08 0 0 0 0 0 1.11335e-09 0 0 
0 0 0 5.07567e-09 0 0 0 0 0 
0 0 0 0 0 0 0 0 0 
0 0 0 0 7.00832e-10 0 0 0 0 
0 4.62182e-10 0 0 0 3.62819e-08 0 0 7.53326e-06 
3.14827e-06 8.6238e-06 0 0 0 0 0 0 0 
0 0 0 0 0 0 0 0 0 
0 0 0 0 0 0 0 0 0 
0 0 0 0 0 0 0 0 0 
0 0 2.86388e-09 0 3.58757e-09 0 0 0 0 
1.22823e-08 0 0 0 0 7.65055e-06 0 2.55311e-08 0 
6.91275e-06 2.86445e-08 0 0 1.59693e-08 1.16431e-08 3.87789e-09 8.54222e-09 0 
0 0 0 0 6.77816e-06 2.83165e-08 4.66013e-09 0 0 
0 0 0 0 0 0 0 0 0 
0 0 0 0 0 0 0 0 6.74843e-08 
2.14489e-08 0 0 0 0 0 0 0 0 
0 0 1.5735e-08 0 3.42354e-09 0 0 7.06213e-06 0 
0 0 0 0 6.80229e-06 3.66099e-12 0 0 0 
0 0 0 0 0 0 0 0 0 
0 0 0 0 0 0 0 0 0 
6.88114e-06 0 0 0 6.88333e-06 0 0 0 0 
0 0 5.25381e-09 0 0 0 0 0 0 
0 1.43213e-08 0 2.34717e-08 0 0 0 0 0 
0 0 0 0 0 4.73035e-09 0 0 0 
0 0 0 0 0 0 0 0 0 
0 0 0 0 0 0 0 0 0 
0 0 0 0 0 0 0 0 0 
0 0 0 0 0 0 0 0 4.96854e-09 
0 0 0 6.81826e-06 0 0 0 0 0 
0 0 0 0 0 0 0 0 0 
0 0 0 0 0 0 0 0 0 
0 0 0 0 0 0 1.67774e-09 0 0 
0 0 0 6.79357e-06 0 0 1.33099e-09 0 0 
0 0 3.1612e-10 0 0 0 0 0 1.82956e-08 
0 0 0 1.31565e-08 0 0 0 0 0 
0 0 0 0 0 0 0 0 0 
0 0 0 0 0 0 0 0 0 
0 0 0 0 0 3.49779e-09 0 0 0 
0 0 0 0 0 0 0 0 0 
4.78263e-08 1.84972e-08 0 0 7.21054e-09 0 0 0 0 
7.23701e-06 0 0 0 0 0 0 0 0 
0 0 0 0 0 0 0 0 0 
0 0 0 0 0 0 0 6.78908e-06 0 
9.77651e-09 0 0 0 0 0 0 0 0 
0 0 0 0 0 6.7833e-06 3.86269e-08 0 0 
0 0 7.2741e-09 0 0 0 1.06838e-07 0 0 
0 0 0 0 0 0 0 0 0 
0 0 0 0 6.34926e-10 0 0 1.55058e-08 0 
0 0 0 0 0 1.16716e-08 0 3.87948e-08 0 
3.93637e-08 0 0 0 0 0 0 0 0 
1.60134e-08 0 0 7.35765e-10 0 0 0 0 1.25235e-08 
2.25877e-08 0 1.32359e-08 4.89276e-08 0 0 0 0 0 
0 0 0 0 0 0 0 0 0 
0 0 0 6.78055e-06 1.87343e-08 0 0 4.10471e-09 0 
0 0 8.10234e-06 2.85489e-11 3.64599e-09 0 0 0 0 
0 0 6.97029e-06 4.09787e-08 0 0 8.70836e-09 5.74885e-09 0 
0 0 0 0 0 0 0 0 5.19633e-09 
0 7.97462e-10 0 0 0 0 0 0 0 
0 0 0 0 0 0 0 0 0 
0 0 0 0 8.20988e-09 0 0 8.03928e-06 0 
0 0 1.55613e-09 0 8.03668e-06 8.11385e-06 0 0 0 
6.99546e-06 0 0 0 0 0 0 0 0 
0 0 0 0 0 0 0 2.05899e-10 0 
0 0 0 0 0 0 0 0 0 
0 0 0 0 0 0 0 0 0 
0 0 0 0 0 1.01412e-09 0 0 0 
0 0 0 0 3.45622e-08 0 0 6.45693e-09 0 
0 0 0 0 0 0 0 0 0 
0 0 0 0 0 0 0 0 0 
0 0 0 0 0 0 0 0 0 
0 0 1.55999e-08 0 0 0 0 0 0 
0 0 0 0 0 0 0 0 0 
0 0 0 7.22636e-06 0 0 0 0 0 
0 0 0 0 0 0 0 0 0 
0 0 0 0 0 0 0 0 0 
0 0 0 0 0 2.84462e-08 6.81307e-06 0 0 
0 0 0 0 0 0 0 0 0 
0 0 3.1237e-08 0 7.97696e-07 0 0 7.48705e-06 0 
0 0 3.56846e-10 1.16813e-08 0 6.1933e-12 0 0 0 
0 0 0 3.30749e-09 1.14918e-08 0 0 0 0 
0 0 0 0 0 0 0 0 0 
0 0 0 0 0 0 0 0 6.45861e-10 
0 0 0 0 0 0 0 6.85398e-06 1.78127e-08 
1.4766e-11 0 0 0 0 0 0 1.06325e-08 0 
0 8.18226e-06 0 0 0 6.91282e-06 0 0 0 
0 0 0 0 0 0 0 0 0 
0 0 0 0 0 0 0 8.63433e-09 0 
3.09696e-08 6.98413e-06 2.75099e-08 0 0 0 0 0 0 
0 0 2.31007e-08 0 0 0 1.00086e-08 0 0 
0 0 0 0 7.06629e-06 0 8.42591e-06 7.10391e-09 0 
0 0 0 0 0 0 0 0 0 
0 0 0 0 0 0 0 0 0 
0 0 0 0 0 1.17248e-08 0 0 0 
0 0 0 0 0 0 0 0 5.49506e-09 
0 4.38601e-09 0 1.04566e-09 0 6.79827e-06 2.44254e-08 0 0 
0 0 4.13449e-08 0 0 0 0 3.60696e-08 6.87945e-06 
0 0 0 0 0 0 0 0 0 
0 0 0 0 0 0 0 0 0 
0 0 0 3.28554e-09 0 0 0 0 0 
0 0 0 0 0 0 0 0 0 
0 0 1.32958e-09 4.00766e-09 0 0 0 0 0 
0 0 0 1.2576e-08 0 0 0 0 0 
0 0 0 0 0 0 1.81502e-11 0 0 
0 0 0 0 0 0 0 0 0 
3.2628e-10 0 0 0 0 0 0 0 0 
0 0 0 0 0 0 1.46127e-08 0 0 
0 0 0 3.31547e-09 0 0 0 0 2.84375e-09 
0 3.23852e-09 0 0 0 0 2.01025e-11 0 0 
0 0 0 0 0 0 0 0 0 
0 0 0 0 0 0 0 0 0 
0 0 0 0 0 0 0 0 0 
0 0 0 0 0 0 0 0 0 
0 0 0 0 0 0 1.11362e-09 0 0 
0 0 0 0 0 0 0 0 0 
0 0 0 0 0 0 0 0 0 
0 0 0 0 0 0 0 0 0 
0 0 0 0 0 0 1.88307e-10 0 0 
0 0 0 0 0 0 0 0 0 
0 0 0 3.99087e-11 0 0 0 0 0 
0 0 0 0 0 0 0 0 0 
0 0 0 0 0 0 0 0 0 
0 0 0 0 0 0 0 0 0 
0 0 0 0 0 0 0 0 0 
0 0 0 0 0 0 0 0 0 
0 0 0 0 0 0 0 0 0 
0 0 0 0 0 0 0 0 0 
0 0 0 0 0 0 0 0 0 
0 0 0 0 0 0 0 0 0 
0 0 0 0 0 0 0 0 0 
0 0 0 0 0 0 0 0 0 
3.5189e-11 0 0 0 0 0 0 0 0 
0 0 0 0 0 0 0 0 0 
0 0 0 0 0 0 0 0 0 
0 0 0 0 0 0 0 0 0 
0 0 0 0 0 0 0 0 0 
0 0 0 0 0 0 0 
feature_2 1 2500 float
0 0 0 0 0 0 0 0 0 
0 0 2.89503e-12 0 0 0 0 0 0 
0 0 0 0 0 0 9.17247e-09 0 5.85285e-09 
0 0 0 0 0 0 1.39669e-08 0 0 
0 0 0 0 0 0 0 0 0 
0 0 0 0 4.53875e-10 0 0 0 0 
0 0 0 0 4.20565e-11 0 0 0 0 
0 0 0 0 0 0 0 0 0 
0 0 0 0 0 0 0 0 0 
0 1.11844e-08 0 4.67708e-10 0 0 0 0 0 
0 0 0 0 0 0 5.77354e-09 0 0 
2.37394e-08 0 2.86927e-12 0 0 0 0 0 0 
0 1.29781e-08 0 0 0 0 0 0 0 
0 0 0 0 1.10548e-08 0 0 0 0 
0 0 0 0 0 0 6.29082e-09 0 0 
0 0 0 0 0 0 0 8.5112e-09 0 
0 0 0 0 0 0 0 0 0 
0 0 0 0 0 0 0 0 6.06187e-09 
0 0 0 0 8.8173e-10 0 0 0 6.01665e-09 
0 0 0 0 0 0 0 0 0 
0 0 0 0 0 0 0 0 0 
0 0 0 1.60209e-08 0 0 0 0 0 
0 0 0 0 0 0 0 0 8.46891e-10 
0 0 0 0 0 0 0 0 0 
0 0 1.02717e-08 0 0 0 0 0 0 
0 0 0 0 0 0 0 0 0 
0 0 0 0 0 0 0 0 0 
0 0 1.70707e-08 0 0 0 0 0 0 
0 0 0 0 0 0 0 2.49651e-10 0 
0 0 0 0 0 0 0 0 0 
0 0 0 0 0 0 0 0 0 
0 0 0 0 0 0 0 0 0 
0 0 0 0 0 0 0 5.09595e-10 0 
0 0 0 0 0 0 0 0 0 
0 0 0 0 0 0 0 0 0 
0 0 0 0 0 0 0 0 0 
0 0 8.45611e-09 0 0 0 0 0 0 
0 0 0 0 0 0 0 0 0 
0 0 0 0 0 0 0 0 0 
4.2391e-09 1.08529e-08 0 0 0 0 0 0 0 
0 0 0 0 0 0 0 0 0 
0 0 0 0 0 0 0 0 0 
0 0 0 0 0 0 0 0 0 
0 0 0 0 0 0 0 0 0 
0 0 0 0 0 0 0 0 0 
0 0 0 9.62587e-08 0 0 0 0 0 
0 0 2.72884e-10 5.93245e-09 0 0 0 0 0 
0 0 0 0 0 7.37841e-13 0 0 0 
0 0 0 0 0 0 0 0 0 
0 0 0 0 0 0 0 0 0 
0 0 0 0 0 0 0 0 0 
0 0 0 0 0 0 0 0 0 
0 0 0 0 0 0 0 0 0 
0 0 0 0 0 0 0 0 0 
0 0 0 0 0 0 0 0 0 
0 5.8896e-09 9.1678e-10 5.90505e-09 0 0 0 3.23149e-09 0 
1.64746e-08 0 0 0 0 0 0 0 0 
0 0 0 0 0 0 0 0 0 
0 0 0 0 0 0 0 0 0 
0 0 0 0 0 0 0 0 0 
0 0 0 0 0 0 0 8.89812e-09 0 
0 0 0 0 0 0 0 0 0 
0 0 0 0 0 0 0 0 0 
0 0 0 0 0 1.23062e-10 0 0 0 
0 0 0 0 0 0 0 0 0 
0 2.87255e-11 0 0 0 0 0 0 0 
0 0 0 0 0 0 0 0 0 
0 2.45592e-11 0 0 0 0 0 0 0 
0 0 5.78402e-09 0 0 0 0 0 0 
0 0 0 0 0 0 0 0 0 
0 0 0 0 9.66884e-12 0 0 0 0 
0 0 0 0 0 0 0 0 0 
0 0 0 0 0 0 0 0 0 
0 0 0 0 0 0 0 0 0 
0 0 0 0 0 0 0 0 0 
0 0 0 0 0 0 0 0 0 
0 0 0 0 0 0 0 5.81095e-09 0 
0 0 0 0 0 0 0 0 0 
1.60516e-08 0 0 3.23576e-12 0 0 0 0 0 
0 0 0 0 0 0 0 0 0 
0 0 0 0 0 0 0 0 0 
0 0 0 0 0 0 0 0 0 
0 0 1.13181e-08 0 0 0 1.30578e-08 0 0 
0 0 0 0 0 0 0 0 0 
0 0 0 5.85871e-09 0 4.32358e-09 0 6.87319e-07 3.26914e-07 
0 0 0 0 0 0 0 0 0 
0 0 0 0 0 0 0 0 0 
0 0 0 0 0 0 0 0 0 
0 0 4.05216e-10 0 0 0 0 0 0 
0 0 0 0 0 0 0 0 0 
0 0 0 1.20508e-07 0 0 8.86101e-13 0 0 
0 0 0 0 0 0 0 0 0 
0 0 0 0 0 0 0 0 0 
0 0 0 0 0 0 0 0 0 
0 0 0 0 0 0 0 0 0 
0 0 0 0 0 0 0 0 0 
0 0 0 0 0 0 0 0 0 
0 0 0 0 0 0 0 0 0 
0 0 0 0 0 0 0 0 0 
0 0 6.03566e-09 1.32315e-10 0 0 5.99575e-09 0 0 
0 0 0 0 9.22269e-09 0 0 0 0 
0 0 0 0 0 0 0 0 0 
0 0 0 0 0 0 0 0 0 
0 0 0 0 0 0 0 0 0 
0 0 0 0 0 0 0 2.20534e-08 0 
0 0 0 0 0 1.35361e-10 0 0 0 
0 5.17087e-09 2.83595e-10 0 0 0 0 0 0 
0 0 0 0 0 0 0 0 0 
0 0 0 1.16999e-08 0 0 0 0 0 
0 0 0 0 0 0 0 0 0 
0 0 0 0 0 0 0 2.19981e-10 5.93533e-09 
0 0 0 0 0 0 0 0 0 
0 0 0 0 0 0 0 0 0 
0 0 0 0 0 0 0 0 0 
0 0 0 0 0 0 0 0 0 
0 0 0 0 0 0 0 0 0 
0 1.56778e-08 0 0 0 0 0 0 0 
0 0 5.77327e-09 0 0 0 0 0 0 
0 0 0 0 0 0 0 0 0 
0 0 0 0 0 0 0 0 0 
0 0 0 0 0 0 0 0 0 
0 0 0 0 0 0 0 0 0 
0 1.86934e-08 0 0 0 0 0 0 0 
0 0 0 0 0 0 0 0 0 
0 0 0 0 0 0 0 5.70083e-09 0 
0 0 0 0 0 0 0 0 0 
0 0 0 0 0 0 0 0 0 
0 0 0 0 0 0 0 0 0 
0 0 0 0 0 0 0 0 0 
0 0 0 0 0 0 0 0 0 
0 0 0 0 0 0 5.38189e-10 0 0 
0 5.93084e-09 0 0 0 2.76879e-11 0 0 0 
0 0 0 0 0 0 0 0 0 
0 0 0 0 0 5.86031e-09 0 0 0 
0 0 0 0 0 0 0 0 0 
0 0 0 0 0 0 0 0 0 
0 0 0 0 0 0 0 0 0 
0 0 0 0 0 0 0 0 0 
0 0 0 0 0 0 0 0 0 
0 0 0 0 0 0 0 0 0 
0 0 0 0 7.68998e-10 6.3614e-10 0 0 0 
0 0 0 0 0 0 0 0 0 
0 0 0 0 0 0 2.05398e-10 0 0 
0 0 0 0 5.73241e-09 0 0 0 0 
0 0 0 0 0 0 0 6.24252e-09 0 
0 0 0 0 0 0 0 0 0 
4.94141e-09 0 0 0 0 0 0 0 0 
0 0 0 0 0 0 0 0 0 
0 0 0 0 0 0 0 0 0 
0 0 0 0 0 0 0 0 0 
0 0 9.82468e-09 0 0 0 0 0 0 
0 0 3.18132e-11 0 0 0 0 0 0 
0 0 0 0 0 2.42397e-08 0 0 0 
0 3.64828e-12 0 0 0 0 0 0 0 
0 0 0 5.07076e-09 1.23973e-08 2.49738e-10 0 0 0 
0 0 0 0 0 0 0 0 0 
0 0 0 0 0 0 0 0 0 
0 0 0 0 0 0 0 0 0 
0 0 0 0 0 0 0 0 0 
0 0 0 0 1.18692e-09 0 0 0 0 
0 0 0 0 0 0 3.57281e-09 0 5.3774e-11 
0 0 0 0 0 0 0 0 0 
0 0 0 0 0 0 0 0 0 
0 0 0 0 0 0 0 0 0 
0 0 0 0 0 0 0 0 0 
0 0 0 0 0 0 0 0 0 
0 0 0 0 0 0 0 0 0 
0 0 0 0 0 0 0 0 0 
0 0 0 0 0 0 0 0 0 
0 0 0 0 0 0 0 0 0 
0 0 0 0 0 0 0 0 0 
0 0 0 0 0 0 0 0 0 
0 0 0 0 9.88424e-10 0 0 0 0 
0 0 0 0 0 0 0 0 0 
0 0 0 1.11154e-08 0 0 0 0 0 
0 0 7.32565e-09 0 0 0 0 0 0 
0 0 0 0 0 0 0 0 0 
0 0 0 0 0 1.30669e-08 0 0 0 
0 0 0 0 0 4.87625e-09 0 0 0 
0 0 0 0 0 0 0 0 0 
0 0 0 0 0 0 0 0 0 
0 0 0 0 0 0 0 0 0 
0 0 0 0 0 0 0 0 0 
0 0 0 0 0 0 0 0 0 
0 0 0 0 5.93623e-09 0 0 0 0 
0 0 0 0 0 0 0 0 0 
0 0 0 0 0 9.24532e-09 0 0 7.44808e-09 
0 0 0 0 0 0 0 9.05156e-10 0 
0 0 7.70345e-09 0 0 0 0 0 0 
0 0 0 0 0 0 0 0 0 
0 0 0 0 0 0 0 0 1.21133e-08 
0 0 0 0 0 0 0 0 0 
0 0 0 1.10994e-08 0 0 0 0 0 
0 0 0 0 0 0 0 0 0 
0 0 0 0 0 0 0 0 0 
0 0 0 0 0 2.31521e-10 0 0 0 
0 0 0 0 0 0 0 0 0 
0 0 0 0 0 0 0 0 0 
0 1.21922e-08 0 0 0 0 0 0 0 
0 3.25795e-08 0 0 0 0 0 0 0 
0 0 0 0 0 0 0 0 0 
0 0 0 0 0 0 0 0 0 
0 0 0 0 0 0 0 0 0 
0 0 0 0 0 0 4.88206e-10 0 0 
0 0 0 0 0 0 0 0 0 
0 0 0 0 0 0 0 1.05861e-08 1.16774e-08 
0 0 0 0 0 0 0 0 0 
0 0 0 0 0 0 0 0 0 
0 0 0 0 0 0 0 5.94354e-09 0 
0 0 0 0 0 9.12183e-09 0 0 0 
0 0 0 0 0 0 0 0 0 
0 0 0 0 0 0 0 8.09761e-09 0 
0 0 0 0 0 0 0 0 0 
0 0 0 0 0 0 0 0 0 
0 0 0 0 0 0 0 0 0 
0 0 0 0 0 6.83031e-12 0 0 0 
0 5.88852e-09 0 0 0 0 0 0 1.54793e-08 
1.54134e-08 0 0 1.1766e-08 0 0 9.94989e-09 0 0 
0 0 0 0 0 0 0 0 0 
0 0 9.40456e-09 0 0 0 0 0 0 
0 0 0 0 0 0 0 0 0 
0 0 0 0 0 0 3.73115e-12 0 0 
0 0 0 0 0 0 0 0 0 
0 0 0 0 0 0 0 0 0 
0 0 0 0 0 0 0 0 0 
0 0 0 0 0 0 0 0 0 
0 0 0 0 0 0 0 0 0 
0 0 0 0 1.75445e-08 6.15271e-09 6.22203e-09 0 0 
0 0 0 0 0 0 0 0 0 
0 0 0 0 0 0 0 0 0 
0 0 1.09814e-08 0 0 0 0 0 0 
0 0 0 0 0 0 0 0 0 
0 0 0 0 0 0 0 0 0 
0 0 0 0 0 0 0 0 2.19686e-08 
1.22956e-08 0 0 0 0 0 0 0 0 
5.85138e-09 0 0 0 0 0 0 0 0 
0 0 0 0 0 0 0 0 0 
0 0 0 0 0 0 0 0 0 
0 0 0 0 1.07516e-08 0 0 0 0 
0 1.81639e-10 5.80524e-09 0 0 0 0 0 7.41875e-09 
0 0 0 0 0 0 0 0 0 
0 0 0 0 0 0 0 0 0 
0 0 0 0 0 0 0 0 0 
0 0 0 0 0 0 0 0 0 
0 0 0 0 0 0 0 0 0 
0 0 0 0 0 0 0 0 0 
0 0 0 0 0 2.10124e-11 0 0 3.18394e-08 
0 0 0 0 0 0 0 0 0 
0 0 0 0 0 0 0 0 2.63079e-11 
0 0 0 0 0 0 2.52831e-10 1.88609e-08 0 
0 0 0 0 0 0 0 1.41922e-08 0 
0 0 0 0 9.24688e-09 0 0 0 3.74712e-10 
5.15051e-09 0 0 0 0 0 0 5.89516e-09 0 
0 0 0 0 0 0 0 0 0 
0 0 9.1192e-09 0 0 0 0 0 0 
0 0 0 0 0 0 0 4.34822e-11 5.9749e-09 
0 0 0 0 0 0 0 0 0 
0 0 0 0 0 0 0 1.55973e-10 1.79758e-10 
0 0 0 0 0 0 0 0 0 
0 0 0 0 0 0 0 0 0 
0 0 0 0 0 0 0 0 0 
0 0 0 0 0 0 0 0 0 
0 0 0 0 2.60654e-08 0 0 0 0 
0 0 0 0 0 0 0 0 0 
0 1.32034e-08 0 0 0 0 0 0 0 
0 0 0 0 0 0 0 0 0 
0 0 0 8.26834e-10 0 0 0 0 0 
0 0 0 0 0 0 0 0 2.31041e-10 
0 2.25705e-10 0 0 0 0 0 0 0 
0 0 0 0 0 0 0 0 2.30212e-08 
0 0 0 0 0 0 0 0 0 
0 0 0 0 0 0 0 0 0 
8.4609e-09 6.53221e-10 0 0 0 0 0 0 0 
9.20505e-09 0 0 0 0 0 0 0 5.66464e-09 
0 4.14359e-10 0 0 0 0 0 0 9.612e-09 
0 0 0 0 0 0 0 0 0 
0 0 0 0 0 0 9.63895e-09 0 0 
0 0 0 0 0 0 0 
feature_3 1 2500 float
0 0 0 0 0 0 0 0 0 
0 0 3.57061e-12 0 0 0 0 0 0 
0 0 0 0 0 0 0 0 0 
0 0 0 0 0 0 0 0 0 
0 0 0 0 0 0 0 0 0 
0 0 0 0 0 0 0 0 0 
0 0 0 0 0 0 0 0 0 
0 0 0 0 0 0 0 0 0 
0 0 0 0 0 0 0 0 0 
0 0 0 0 0 0 0 0 0 
0 0 0 0 0 0 0 0 0 
0 0 0 0 0 0 0 0 0 
0 0 0 0 0 0 0 0 0 
0 0 0 0 0 0 0 0 0 
0 0 0 0 0 0 0 0 0 
0 1.0207e-08 0 0 0 0 0 0 0 
0 0 0 0 0 0 0 0 0 
0 0 0 0 0 0 0 0 0 
0 0 0 0 1.23806e-08 0 0 0 0 
0 0 0 0 0 1.53833e-11 0 0 0 
0 0 0 0 0 0 0 0 0 
0 0 0 2.4901e-08 0 0 0 0 0 
0 0 0 0 0 0 0 0 0 
0 0 0 0 0 0 0 0 0 
0 0 0 0 0 0 0 0 0 
0 0 0 0 0 0 0 0 0 
0 0 0 0 0 0 0 2.16117e-12 0 
0 0 0 0 0 0 0 0 0 
0 6.89024e-09 0 0 0 0 0 0 0 
0 0 0 0 0 0 0 0 0 
0 0 0 0 0 0 0 0 0 
0 0 0 0 0 0 0 0 0 
0 0 0 0 0 0 0 0 0 
0 0 0 0 0 0 0 0 0 
0 0 0 0 0 0 0 0 0 
0 0 0 0 0 0 0 1.17349e-08 0 
0 0 0 0 0 0 0 0 0 
0 0 0 0 0 0 0 0 0 
0 0 0 0 0 0 0 0 0 
0 0 0 0 0 0 0 0 0 
0 0 0 0 0 0 0 0 0 
0 0 0 0 0 0 0 0 0 
0 0 0 0 0 0 0 0 0 
0 0 0 0 0 0 0 0 0 
0 0 0 0 0 0 0 0 0 
0 0 0 0 0 0 0 0 0 
0 0 0 0 0 0 0 0 0 
0 0 0 0 0 0 0 0 0 
0 0 0 0 0 0 0 0 0 
0 0 0 0 0 0 0 0 0 
0 0 0 0 0 0 0 0 0 
0 0 0 0 0 0 0 0 0 
0 0 0 0 0 0 0 0 0 
0 0 0 0 0 0 0 0 0 
0 0 0 0 0 0 0 0 0 
0 0 3.5278e-08 0 0 0 0 0 0 
0 0 0 0 0 0 0 0 0 
0 0 0 0 0 0 0 0 0 
0 0 0 0 0 0 0 0 0 
0 0 0 0 0 0 0 0 0 
0 0 0 0 0 0 0 0 0 
0 0 0 0 0 0 0 0 0 
0 0 0 0 0 0 0 0 0 
0 0 0 0 0 0 0 0 0 
0 0 0 0 0 0 0 0 0 
0 0 0 0 0 0 0 0 0 
0 0 0 2.06524e-08 0 0 0 0 0 
0 0 0 0 0 0 0 0 0 
0 0 0 0 0 0 0 0 0 
0 0 0 0 0 0 0 0 0 
0 0 0 0 0 0 1.67082e-11 0 0 
0 0 0 0 0 0 0 0 0 
0 0 0 0 0 0 0 0 0 
0 0 0 0 0 0 0 0 0 
0 0 0 0 0 0 0 0 1.25455e-09 
0 0 0 0 0 0 0 0 0 
0 0 0 0 0 0 0 0 0 
0 0 0 0 0 0 0 0 0 
0 0 0 0 0 0 0 0 0 
0 0 0 0 0 0 0 0 0 
0 0 0 0 0 0 0 0 0 
0 0 0 0 0 0 0 0 0 
0 0 0 0 0 0 0 0 0 
0 0 0 0 0 0 0 0 0 
0 0 0 0 0 0 0 0 0 
0 0 0 0 0 1.26384e-08 0 0 0 
0 0 0 0 0 0 0 0 0 
0 0 0 0 0 0 0 0 0 
0 0 0 0 0 0 0 0 0 
0 0 0 0 0 0 0 0 0 
0 0 0 0 0 0 0 0 0 
0 0 0 0 0 0 0 0 0 
0 0 0 0 0 0 0 0 0 
0 0 0 0 0 0 0 0 0 
0 0 0 0 0 0 0 0 0 
0 0 0 0 0 0 0 0 0 
0 0 0 0 0 2.69494e-12 0 0 0 
0 0 0 0 0 0 0 0 0 
0 0 0 0 1.02987e-07 0 0 0 0 
0 0 0 0 0 0 0 0 0 
0 0 0 0 0 0 0 0 0 
0 0 0 0 0 0 0 0 0 
0 0 0 0 0 0 0 0 0 
0 0 0 0 0 0 0 0 0 
0 0 0 0 0 0 0 0 0 
0 0 0 0 0 0 0 0 0 
0 0 0 0 0 0 0 0 0 
0 0 0 0 0 0 0 0 0 
0 0 0 0 0 0 0 0 0 
0 0 0 0 0 0 0 0 0 
0 0 0 0 0 0 0 0 0 
0 0 0 0 0 0 0 0 0 
0 0 0 0 0 0 0 0 0 
0 0 0 0 0 0 0 0 0 
0 0 1.24405e-11 0 0 0 0 0 0 
0 0 0 0 0 0 0 0 0 
0 0 0 0 0 0 0 0 0 
0 0 0 0 0 0 6.80599e-09 0 0 
0 0 0 0 0 0 0 0 0 
0 0 0 0 0 0 0 0 0 
0 0 0 0 0 0 0 0 0 
0 0 0 0 0 0 0 0 0 
0 0 2.48851e-08 0 0 0 0 0 0 
0 0 0 0 0 0 0 0 0 
0 0 0 0 0 0 0 0 0 
0 1.25511e-11 0 0 0 0 0 0 0 
0 0 0 0 0 0 0 0 0 
0 0 0 2.32789e-13 0 0 0 0 0 
0 0 0 0 0 0 0 0 0 
0 0 0 0 0 0 0 0 0 
0 0 0 0 0 0 0 0 0 
0 0 0 0 0 0 0 0 0 
0 0 0 0 0 0 0 0 0 
0 0 0 0 0 0 0 0 0 
0 0 0 0 0 0 0 0 0 
0 0 0 0 0 0 0 0 0 
0 0 0 0 0 0 0 0 0 
0 0 0 0 0 0 0 0 0 
0 0 0 0 0 0 0 0 0 
0 0 0 0 0 0 0 0 0 
0 0 0 0 0 0 0 0 0 
0 0 0 0 0 0 0 0 0 
0 0 0 0 0 0 0 0 0 
0 0 0 0 0 0 0 0 0 
0 0 0 0 0 1.67407e-08 0 0 2.2566e-08 
0 0 3.08083e-12 0 0 0 0 0 0 
0 0 0 0 0 0 0 0 0 
0 0 0 0 0 0 0 0 0 
0 0 0 0 0 0 0 0 0 
0 0 0 0 0 0 0 0 0 
0 0 0 0 0 0 0 0 0 
0 0 0 0 0 0 0 0 0 
0 0 0 0 0 0 1.08542e-11 0 0 
0 0 0 0 0 0 0 0 0 
0 0 0 0 0 0 0 0 0 
0 0 0 0 0 0 0 0 0 
0 0 0 0 0 0 0 0 0 
0 0 0 0 0 0 6.45361e-09 0 0 
0 0 0 0 6.53184e-09 0 0 0 0 
0 0 0 0 0 0 0 0 0 
0 0 0 0 0 0 0 0 0 
0 0 0 0 0 0 0 0 0 
0 0 0 0 0 0 0 0 0 
0 0 2.61502e-11 0 0 0 0 0 0 
0 0 0 0 0 0 0 0 0 
0 0 0 0 0 0 0 0 0 
0 0 0 0 0 0 6.67072e-09 0 0 
0 0 0 0 0 0 0 0 0 
0 0 0 0 0 0 0 0 0 
0 0 0 0 0 0 0 0 0 
0 0 0 0 0 0 0 0 0 
0 0 0 0 0 0 0 0 2.38553e-08 
0 0 0 0 0 0 0 0 0 
0 0 0 0 0 0 6.57867e-09 0 0 
0 0 0 0 0 0 0 0 0 
0 0 0 0 0 0 0 0 0 
0 0 0 0 0 0 6.66462e-09 0 0 
0 0 0 0 0 0 0 0 0 
0 0 0 0 0 0 0 0 0 
0 0 0 0 0 0 0 0 0 
0 0 0 0 0 0 0 0 0 
0 0 0 0 0 0 0 0 0 
0 0 0 0 0 0 0 0 0 
0 0 0 0 0 0 0 0 0 
0 0 1.12613e-08 0 0 0 0 0 0 
0 0 0 0 0 0 0 0 0 
0 0 0 0 0 0 0 0 0 
0 0 0 0 0 0 0 0 0 
6.63106e-09 0 0 0 0 0 0 0 0 
0 0 0 0 0 0 0 0 0 
0 0 0 0 0 0 0 0 0 
0 0 0 0 0 0 0 0 0 
0 0 0 0 0 0 0 0 0 
0 0 0 0 0 0 0 0 0 
0 0 0 0 0 0 0 0 0 
0 0 0 0 0 0 0 0 0 
0 0 0 0 0 0 0 0 0 
0 0 0 0 0 0 0 0 0 
0 0 0 0 0 0 0 0 0 
0 0 0 0 0 0 0 0 0 
0 0 0 0 0 0 0 0 0 
0 0 0 0 0 0 0 0 0 
0 0 0 0 0 0 0 0 0 
0 0 0 0 0 0 0 0 0 
0 2.19748e-11 0 0 6.75852e-09 0 1.19569e-08 0 0 
0 0 0 0 8.6456e-09 0 0 0 0 
0 0 0 0 0 0 0 0 0 
0 0 0 0 0 0 0 0 0 
0 0 0 0 0 0 0 0 0 
0 0 0 0 0 6.65961e-09 0 0 0 
0 0 0 0 0 0 2.74336e-11 0 0 
0 0 0 0 0 0 0 0 0 
0 0 0 0 0 0 0 0 0 
0 0 0 0 0 0 0 0 0 
0 0 0 0 0 0 0 0 0 
0 0 0 0 0 0 0 0 0 
0 0 0 0 0 0 1.32817e-08 0 0 
0 0 0 0 0 0 0 0 0 
0 0 0 0 0 0 0 0 0 
0 0 0 0 0 0 0 0 0 
0 0 0 0 0 0 0 0 0 
0 0 0 0 0 0 0 0 0 
0 0 6.61992e-09 0 0 0 0 0 0 
0 0 0 0 0 0 0 0 0 
0 0 0 0 0 0 0 0 0 
0 0 0 0 0 0 0 0 0 
0 0 0 0 0 0 0 0 0 
0 0 0 0 0 0 0 0 0 
0 0 0 0 0 0 0 0 0 
0 0 0 0 0 0 0 0 0 
0 0 0 0 0 0 0 0 0 
0 0 0 0 0 0 0 0 0 
0 0 0 0 0 0 0 0 0 
0 0 0 0 0 0 0 0 0 
0 0 0 0 0 0 0 0 0 
0 0 0 0 0 0 0 0 0 
0 0 0 0 0 0 0 0 0 
0 0 0 0 2.18793e-12 0 0 0 0 
0 0 0 0 0 0 0 0 0 
0 0 0 0 0 0 0 0 0 
0 0 0 0 0 0 0 0 0 
0 0 0 0 0 0 0 0 0 
0 0 0 0 0 0 0 0 0 
0 0 0 0 0 0 0 0 0 
0 0 0 0 0 0 0 0 0 
0 0 0 0 0 0 0 0 0 
0 0 0 0 0 0 0 0 0 
0 0 0 0 0 0 0 6.1557e-09 0 
0 0 0 0 0 0 0 0 0 
0 3.61633e-09 0 0 0 0 0 0 0 
1.89775e-08 0 0 0 0 0 0 0 0 
0 0 0 0 0 0 0 0 0 
0 0 0 0 0 0 0 0 0 
0 0 0 0 0 0 0 0 0 
0 0 0 0 0 0 0 0 0 
0 0 0 0 0 0 0 0 0 
0 0 0 0 0 0 0 0 0 
0 0 0 0 0 0 0 0 0 
0 0 0 0 0 0 0 0 0 
0 0 0 0 0 0 0 0 0 
0 0 0 0 0 0 0 0 0 
0 0 0 0 0 0 0 0 0 
0 0 0 0 0 0 0 0 0 
0 0 0 0 0 0 0 0 0 
0 0 0 0 0 0 0 0 0 
0 0 0 0 0 0 0 0 0 
0 0 0 0 0 0 0 0 0 
0 0 0 0 0 0 0 0 0 
0 0 0 0 0 0 0 0 0 
0 0 0 0 0 0 0 8.43241e-09 0 
0 0 0 0 0 0 0 0 0 
0 0 0 0 0 0 0 0 0 
0 0 0 0 0 0 0 0 9.33548e-09 
0 0 0 0 0 0 0 0 0 
0 0 0 0 0 0 0 0 0 
0 1.90292e-08 0 0 0 0 0 0 0 
0 0 0 0 0 0 0 0 0 
0 0 0 0 0 6.52875e-09 0 
feature_4 1 2500 float
1.4184e-11 0 0 0 0 0 0 0 0 
0 0 0 0 0 0 0 0 0 
0 0 0 0 0 0 0 0 0 
0 0 0 0 0 0 0 0 0 
0 0 0 0 0 0 0 0 0 
0 0 0 0 0 0 0 0 0 
0 0 0 0 0 0 0 0 0 
0 0 0 0 0 0 0 0 0 
0 0 0 0 0 0 0 0 0 
0 0 0 0 0 0 0 0 0 
0 0 0 0 0 0 0 0 0 
0 0 0 0 0 0 0 0 0 
0 0 0 0 0 0 0 0 0 
0 0 0 0 0 0 0 0 0 
0 0 0 0 0 0 0 0 0 
0 0 0 0 0 0 0 0 0 
0 0 0 0 0 0 0 0 0 
0 0 0 0 0 0 0 0 0 
0 0 0 0 0 0 0 0 0 
0 0 0 0 0 0 0 0 0 
0 0 0 0 0 0 0 0 0 
0 0 0 0 0 0 0 0 0 
0 0 0 0 0 0 0 0 0 
0 0 0 0 0 0 0 0 0 
0 0 0 0 0 0 0 0 0 
1.14289e-11 0 0 0 0 0 0 0 0 
0 0 0 0 0 0 0 0 0 
0 0 0 0 0 0 0 0 0 
0 0 0 0 0 0 0 0 0 
0 0 0 0 0 0 0 0 0 
0 0 0 0 0 0 0 0 0 
0 0 0 0 0 0 0 0 0 
0 0 0 0 0 0 0 0 0 
0 0 0 0 0 0 0 0 0 
0 0 0 0 0 1.14073e-09 0 0 1.51835e-11 
0 0 0 0 0 0 0 0 0 
0 0 0 0 0 0 0 0 0 
0 0 0 0 0 0 0 0 0 
0 0 0 0 0 0 0 0 0 
0 0 0 0 0 0 0 0 0 
0 0 0 0 0 0 0 0 0 
0 0 0 0 0 0 0 1.52481e-11 0 
0 0 0 0 0 0 0 0 0 
0 0 0 0 0 0 0 0 0 
0 0 0 0 0 0 0 0 0 
0 0 0 0 0 0 0 0 0 
0 0 0 0 0 0 0 0 0 
0 0 0 0 0 0 0 0 0 
0 0 0 0 0 0 0 0 0 
0 0 0 0 0 0 0 0 0 
0 0 0 0 0 0 0 0 0 
0 0 0 0 4.2106e-12 0 0 0 0 
0 0 0 0 0 0 0 0 0 
0 0 0 0 0 0 0 0 0 
0 0 0 0 0 0 0 0 0 
0 0 6.56319e-09 0 0 0 0 0 0 
0 0 0 0 0 0 0 0 0 
0 0 0 0 0 0 0 0 0 
1.77389e-11 0 0 0 0 0 0 0 0 
0 0 0 0 0 0 0 0 0 
0 0 0 0 0 0 0 0 0 
0 0 0 0 0 0 0 0 0 
0 0 0 0 0 0 0 0 0 
0 0 0 0 0 0 0 0 0 
0 0 0 0 0 0 0 0 0 
0 0 0 0 0 0 0 0 0 
0 0 0 0 0 0 0 0 0 
0 0 0 0 0 0 0 0 0 
0 0 0 0 0 0 0 0 0 
0 0 0 0 0 0 0 0 0 
0 0 0 0 0 0 0 0 0 
0 0 0 0 0 0 0 0 0 
0 0 0 0 0 0 0 0 0 
0 1.16048e-09 0 0 0 0 0 0 0 
0 0 0 0 0 0 0 0 0 
0 0 0 0 0 0 0 0 0 
0 0 0 0 0 0 0 0 0 
0 0 0 0 0 0 0 0 0 
0 0 0 0 0 0 0 0 0 
0 0 0 0 0 0 0 0 0 
0 0 0 0 0 0 0 0 0 
0 0 0 0 0 0 0 0 0 
0 0 0 0 0 0 0 0 0 
0 0 0 0 0 0 0 0 0 
0 0 0 0 0 0 0 0 0 
0 0 0 0 0 0 0 0 0 
0 0 0 0 0 0 0 0 0 
0 0 0 0 0 0 0 0 0 
0 0 0 0 0 0 0 0 0 
0 0 0 0 0 0 0 0 0 
0 0 0 0 0 0 5.64034e-12 0 0 
0 0 0 0 0 0 0 0 2.18891e-09 
0 0 0 0 0 0 0 0 0 
0 0 0 0 0 0 0 0 0 
0 0 0 0 0 0 0 0 0 
0 0 0 0 0 0 0 0 0 
0 0 0 0 0 0 0 0 0 
0 0 0 0 0 0 0 0 0 
0 0 0 0 0 0 0 0 0 
0 0 0 0 0 0 0 0 0 
0 0 0 0 0 0 0 0 0 
0 0 0 0 0 0 0 0 0 
0 0 0 0 0 0 0 0 0 
0 0 0 0 0 0 0 0 0 
0 0 0 0 0 0 0 0 0 
0 0 0 0 0 0 0 0 0 
0 0 0 0 0 0 0 0 0 
0 0 0 0 0 0 0 0 0 
0 0 0 0 0 0 0 0 0 
0 0 0 0 0 0 0 0 0 
0 0 0 0 0 0 0 0 0 
0 0 0 0 0 0 0 0 0 
0 0 0 0 0 0 0 0 0 
0 0 0 0 0 0 0 0 0 
0 0 0 0 0 0 0 0 0 
0 0 0 0 0 0 0 0 0 
0 0 0 0 0 0 0 0 0 
0 0 0 0 0 0 0 0 0 
0 0 0 0 0 0 0 0 0 
0 0 0 0 0 0 0 0 0 
0 0 0 0 0 0 0 0 0 
0 0 0 0 0 0 0 0 0 
0 0 0 0 0 0 0 0 0 
0 0 0 0 0 0 0 0 0 
0 0 0 0 0 0 0 0 0 
0 0 0 0 0 0 0 0 0 
0 0 0 0 0 0 0 0 0 
0 0 0 0 0 0 0 0 0 
0 0 0 0 0 0 0 0 0 
0 0 0 0 0 0 0 0 0 
0 0 0 0 0 0 0 0 0 
0 0 0 0 0 0 0 0 0 
0 0 0 0 0 0 0 0 0 
0 0 0 0 0 0 0 0 0 
0 0 0 0 0 0 0 0 0 
0 0 0 0 0 0 0 0 0 
0 0 0 0 0 0 0 0 0 
0 0 0 0 0 0 0 0 0 
0 0 0 0 0 0 0 0 0 
0 0 0 0 0 0 0 0 0 
0 0 0 0 0 0 0 0 0 
0 0 0 0 0 0 0 0 0 
0 0 0 0 0 0 0 0 0 
0 0 0 0 0 0 0 0 0 
0 0 0 0 0 3.16946e-09 0 0 0 
0 0 0 0 0 0 0 0 0 
0 0 0 0 0 0 0 0 0 
0 0 0 0 0 0 0 0 0 
0 0 0 0 0 0 0 0 0 
0 0 0 0 0 0 0 2.25484e-09 0 
0 0 0 0 0 0 0 0 0 
0 0 0 0 0 0 0 0 0 
0 0 0 0 0 0 0 0 0 
0 0 0 0 0 0 0 0 0 
0 0 0 0 0 0 0 0 0 
0 0 0 0 0 0 0 0 0 
0 0 0 0 0 0 0 0 0 
0 0 0 0 0 0 0 0 0 
0 0 0 0 0 0 0 0 0 
0 0 0 0 0 0 0 0 0 
0 0 0 0 1.14962e-11 0 0 0 0 
0 0 0 0 0 0 0 0 0 
0 0 0 0 0 0 0 0 0 
0 0 0 0 0 0 0 0 0 
0 0 0 0 0 0 0 0 0 
0 0 0 0 0 0 0 0 0 
0 0 0 0 0 0 0 0 0 
0 0 0 0 0 0 0 0 0 
0 0 0 0 0 0 0 0 0 
0 0 0 0 0 0 0 0 0 
0 0 0 0 0 0 0 0 0 
0 0 0 0 0 0 0 0 0 
0 0 0 0 0 0 0 0 0 
0 0 0 0 0 0 1.15944e-09 0 0 
0 0 0 0 0 0 0 0 0 
0 0 0 0 0 0 0 0 0 
0 0 0 0 0 0 0 0 0 
0 0 0 0 0 0 0 0 0 
0 0 0 0 0 0 0 0 0 
0 0 0 0 0 0 0 0 0 
0 0 0 0 0 0 0 0 0 
0 0 0 0 0 0 0 0 0 
0 0 0 0 0 0 0 0 0 
0 0 0 0 0 0 0 0 0 
0 0 0 0 0 0 0 0 0 
0 0 0 0 0 0 0 0 0 
0 0 0 0 0 0 0 0 0 
0 0 0 0 0 0 0 0 0 
0 0 0 0 0 0 0 0 0 
0 0 0 0 0 0 0 0 0 
0 0 0 0 0 0 0 0 0 
0 0 0 0 0 0 0 0 0 
0 0 0 0 0 0 0 0 0 
0 0 0 0 0 0 0 0 0 
0 0 0 0 0 0 0 0 0 
0 0 0 0 0 0 0 0 0 
0 0 0 0 0 0 0 0 0 
0 0 0 0 2.01279e-12 0 0 0 0 
5.0549e-09 0 0 0 0 0 0 0 0 
0 0 0 0 0 0 0 0 0 
0 0 0 0 0 0 0 0 0 
0 0 0 0 0 0 5.87357e-12 0 0 
0 0 0 0 0 0 0 0 0 
0 0 0 0 0 0 0 0 0 
0 0 0 0 0 0 0 0 0 
0 0 0 0 1.65283e-09 0 0 0 0 
0 0 0 0 0 0 0 0 0 
0 0 0 0 0 0 0 0 0 
0 0 0 3.67152e-12 0 0 0 0 0 
0 0 0 0 0 0 0 0 0 
0 0 0 0 0 0 0 0 0 
0 0 0 0 0 0 0 0 0 
0 0 0 0 0 0 0 0 0 
0 0 0 0 0 0 0 0 0 
0 0 0 0 0 0 0 0 0 
0 0 0 0 0 0 0 0 0 
0 0 0 0 0 0 2.6154e-09 0 0 
0 0 0 0 0 1.22122e-09 0 0 0 
0 0 0 0 0 0 0 0 0 
0 0 0 0 0 0 0 0 0 
0 0 0 0 0 0 0 0 0 
0 0 0 0 0 0 0 0 0 
0 0 0 0 0 0 0 0 0 
0 0 0 0 0 0 0 0 0 
0 0 0 0 0 0 0 0 0 
0 0 0 0 0 0 0 0 0 
0 0 0 0 0 0 0 0 0 
0 0 0 0 0 0 0 0 0 
0 0 0 0 0 0 0 0 0 
0 0 0 0 0 0 0 0 0 
0 0 0 0 0 0 0 0 0 
0 0 0 0 0 0 0 0 0 
0 0 0 0 0 0 0 0 0 
0 0 0 0 0 0 0 2.08979e-09 0 
0 0 0 0 0 0 0 0 0 
0 0 0 0 0 0 0 0 0 
0 0 0 0 0 0 0 0 0 
0 0 0 0 0 0 0 0 0 
0 0 0 0 0 0 0 0 0 
0 0 0 0 0 0 0 0 0 
0 0 0 0 0 0 0 0 0 
0 0 0 0 0 0 0 0 0 
0 0 0 0 0 0 0 0 0 
0 0 0 0 0 0 0 0 0 
0 0 0 0 0 0 0 0 0 
0 0 0 0 0 0 0 0 0 
0 0 0 0 0 0 0 0 0 
0 0 0 0 0 0 0 1.17668e-09 0 
0 0 0 0 0 0 0 0 0 
0 0 0 0 0 0 0 0 0 
3.46947e-09 0 0 0 0 0 0 0 0 
0 0 0 0 0 0 0 0 0 
0 0 0 0 0 0 0 0 0 
0 0 0 0 0 0 0 0 0 
0 0 0 0 0 0 0 0 0 
0 0 0 0 0 0 0 0 0 
0 0 0 0 0 0 0 0 0 
0 0 0 0 0 0 0 0 0 
0 0 0 0 0 0 0 0 0 
0 0 0 0 0 0 0 0 0 
0 0 0 0 0 0 0 0 0 
0 0 0 0 0 0 0 0 0 
0 0 0 0 0 0 0 0 0 
0 0 0 0 0 0 0 0 0 
0 0 0 0 0 0 0 0 0 
0 0 0 0 0 0 0 0 0 
0 0 0 0 0 0 0 0 0 
0 0 0 0 0 0 0 1.31699e-09 0 
0 0 0 0 0 0 0 0 0 
0 0 0 0 0 0 0 0 0 
0 0 0 0 0 0 0 0 0 
0 0 0 0 0 0 0 0 0 
0 3.34096e-09 0 0 0 0 0 0 0 
0 0 0 0 0 0 0 0 0 
0 0 0 0 0 0 0 0 0 
0 0 0 0 0 0 0 0 0 
0 0 0 0 0 0 0 0 0 
0 0 0 0 2.10104e-11 1.24464e-09 0 
feature_5 1 2500 float
0 0 0 0 0 0 0 0 0 
0 0 0 0 0 0 0 0 0 
0 0 0 0 0 0 1.29732e-08 0 0 
0 0 0 0 0 0 0 0 0 
0 4.38645e-12 0 0 0 0 0 0 0 
0 0 0 0 0 0 0 0 0 
0 0 0 0 0 0 0 0 0 
0 0 0 0 0 0 0 1.93927e-08 0 
0 0 0 0 0 0 0 0 0 
0 0 0 0 0 0 0 0 0 
0 0 0 0 0 0 0 0 0 
3.1919e-08 0 0 0 0 0 0 0 0 
0 1.91669e-08 0 0 0 0 0 0 0 
0 0 0 0 0 0 0 0 0 
0 0 0 0 0 0 0 0 0 
0 0 0 0 0 0 0 1.25965e-08 0 
0 0 0 0 0 0 0 0 0 
0 0 0 0 0 0 0 0 0 
0 0 0 0 0 0 0 0 0 
0 0 0 0 0 0 0 0 0 
0 0 0 0 0 0 0 0 0 
0 0 0 2.83888e-08 0 0 0 0 2.60651e-08 
0 0 0 0 0 0 0 0 0 
0 0 0 0 0 0 0 0 0 
0 0 0 0 0 0 0 0 0 
0 0 0 0 0 0 0 0 0 
0 0 0 0 0 0 0 0 0 
0 0 1.95331e-08 0 0 0 0 0 0 
0 0 0 0 1.24968e-08 0 0 0 0 
0 0 0 0 0 0 0 0 0 
0 0 0 0 0 0 0 0 0 
0 0 0 0 0 0 0 0 0 
0 0 0 0 0 0 0 0 0 
0 0 0 0 5.71022e-12 0 0 0 0 
0 0 0 0 0 1.7854e-09 0 0 0 
0 0 0 0 0 6.69237e-09 0 0 0 
0 0 1.25008e-08 0 0 0 0 0 0 
0 1.85746e-08 0 0 0 0 0 0 0 
0 0 0 0 0 0 0 0 0 
0 1.31157e-08 0 0 0 0 0 0 0 
0 0 0 0 0 0 0 0 0 
0 0 0 0 0 0 0 0 0 
0 6.74535e-09 0 0 0 0 0 0 0 
0 0 0 0 0 0 0 0 0 
0 0 0 0 0 0 0 0 0 
0 0 0 1.23682e-07 0 0 0 0 0 
0 0 0 0 0 0 0 0 0 
0 0 0 0 0 0 0 0 0 
0 0 0 0 0 0 0 0 0 
0 0 0 0 0 0 0 0 0 
0 0 0 0 0 0 0 0 0 
0 0 0 0 0 0 0 0 0 
0 0 0 0 0 0 0 0 0 
0 0 1.91389e-08 0 0 0 0 0 0 
0 0 0 0 0 0 0 0 0 
0 6.63772e-09 0 6.66149e-09 0 0 0 0 0 
1.96862e-08 0 0 0 0 0 0 0 0 
0 0 0 0 0 0 0 0 0 
0 0 0 0 0 0 0 0 0 
0 0 0 0 0 0 0 0 0 
0 0 0 1.26635e-08 0 0 0 1.27077e-08 0 
4.21571e-12 0 0 0 2.03948e-09 0 0 0 0 
0 0 0 0 0 0 0 0 0 
0 0 5.99127e-09 0 0 0 0 0 0 
0 0 0 0 1.35675e-11 0 0 0 0 
0 0 0 0 0 0 5.09731e-12 0 0 
0 0 0 0 0 0 0 0 0 
0 0 0 0 0 0 0 0 0 
0 0 0 0 0 0 0 0 0 
0 0 0 0 0 0 0 0 0 
0 0 0 0 0 0 0 0 0 
0 0 0 0 0 0 0 0 0 
0 0 0 0 0 0 0 0 0 
0 0 0 0 0 0 0 0 0 
0 0 0 0 0 0 0 0 4.71307e-12 
0 0 0 0 0 0 0 0 0 
0 0 0 0 0 0 0 0 0 
0 0 0 0 0 0 0 0 0 
2.53459e-08 0 0 0 0 0 0 0 0 
0 0 0 0 0 0 0 0 0 
0 0 0 0 0 0 0 0 0 
0 0 0 0 0 0 0 1.8996e-08 0 
0 0 0 0 0 0 2.43919e-08 0 0 
0 0 0 0 0 0 0 0 0 
0 1.30368e-08 0 6.6127e-09 0 0 0 8.74512e-07 3.90045e-07 
0 0 0 0 0 0 0 0 0 
0 0 0 0 0 0 0 0 0 
0 0 0 0 6.62908e-09 0 1.80899e-09 0 0 
0 0 0 0 0 0 0 0 0 
0 0 0 0 0 0 0 0 0 
0 0 0 3.36741e-09 0 0 0 0 0 
0 0 0 0 0 0 0 0 3.758e-09 
0 0 0 0 0 0 0 0 0 
0 0 0 0 1.29182e-08 0 0 0 0 
0 0 0 0 1.93918e-08 0 0 0 0 
0 0 0 0 0 0 0 0 0 
0 0 0 0 0 0 0 0 0 
0 0 0 0 0 0 0 0 0 
0 0 0 0 3.10131e-08 0 0 0 0 
0 0 0 0 0 0 6.38135e-09 0 0 
0 0 0 0 1.29625e-08 0 0 0 0 
0 0 0 0 0 0 0 0 0 
0 0 0 0 0 0 0 0 0 
0 0 0 0 0 0 0 0 0 
0 0 0 0 0 0 0 3.17448e-08 0 
0 0 0 0 0 0 0 0 0 
0 0 0 0 0 0 0 0 0 
0 0 0 0 0 0 0 0 0 
0 0 0 1.89466e-08 0 0 0 0 0 
0 0 0 0 0 0 0 0 0 
0 0 0 0 0 0 0 0 6.7063e-09 
0 0 6.97925e-09 0 0 0 0 0 0 
0 0 0 0 0 0 0 0 0 
0 0 0 0 0 0 0 0 0 
0 0 0 0 0 0 0 0 0 
0 0 0 0 0 0 0 0 0 
0 2.5256e-08 0 0 0 0 0 0 0 
0 0 0 0 0 0 0 0 0 
0 0 0 0 0 0 0 0 0 
0 0 0 0 1.91458e-09 0 0 0 0 
0 0 0 0 0 0 0 0 0 
0 6.52464e-09 0 0 0 0 0 0 0 
0 2.56286e-08 0 0 0 0 0 0 0 
0 0 0 0 0 0 0 0 0 
0 0 0 0 0 0 0 6.47447e-09 0 
0 0 0 0 0 0 0 0 0 
0 0 0 0 0 0 0 0 0 
0 0 0 9.39057e-12 0 0 0 0 0 
0 0 0 0 0 0 0 0 0 
0 0 0 0 0 0 0 0 0 
0 0 0 0 0 0 0 0 0 
0 6.60827e-09 0 0 0 0 0 0 0 
0 0 0 0 0 0 0 0 0 
0 0 0 0 0 6.80877e-09 0 0 0 
0 0 0 0 0 1.24184e-08 0 0 0 
0 0 0 0 0 0 0 0 0 
0 0 0 0 0 0 0 0 0 
0 0 0 0 0 0 0 0 0 
0 0 0 0 0 0 0 0 0 
0 0 0 6.51075e-09 0 0 0 0 0 
0 0 0 6.62966e-09 0 0 0 0 0 
0 0 0 0 0 0 0 0 0 
0 0 0 0 0 0 0 0 0 
0 0 1.26764e-08 0 6.59789e-09 0 0 0 0 
0 0 0 0 0 0 0 0 0 
0 0 0 0 0 0 0 0 0 
0 3.51341e-08 0 0 0 0 0 0 0 
0 0 0 0 0 0 0 0 0 
0 0 0 0 0 0 0 0 0 
0 0 0 0 0 0 0 0 0 
0 0 1.29503e-08 0 0 0 0 0 0 
0 0 0 0 0 0 0 0 0 