# vtk DataFile Version 5.1
vtk output
ASCII
DATASET STRUCTURED_POINTS
DIMENSIONS 100 100 1
SPACING 1 1 1
ORIGIN 0 0 0
POINT_DATA 10000
FIELD FieldData 6
feature_1 1 10000 float
0 0 0 0 0 0 0 0 0 
0 0 0 0 0 0 0 0 0 
0 0 0 0 0 0 0 0 0 
0 0 0 0 0 0 0 0 0 
0 0 0 0 0 0 0 0 0 
0 0 0 0 0 0 0 0 0 
0 0 0 0 0 0 0 0 0 
0 0 0 0 0 0 0 0 0 
0 0 0 0 0 0 0 0 0 
0 0 0 0 0 0 0 0 0 
0 0 0 0 0 0 0 0 0 
0 0 0 0 0 0 0 0 0 
0 0 0 0 0 0 0 0 0 
0 0 0 0 0 0 0 0 0 
0 0 0 0 0 0 0 0 0 
0 0 0 0 0 0 0 0 0 
0 0 0 0 0 0 0 0 0 
0 0 0 0 0 0 0 0 0 
0 0 0 0 0 0 0 0 0 
0 0 0 0 0 0 0 0 0 
0 0 0 0 0 0 0 0 0 
0 0 0 0 0 0 0 0 0 
0 0 0 0 0 0 0 0 0 
0 0 0 0 0 0 0 0 0 
0 0 0 0 0 0 0 0 0 
0 0 0 0 0 0 0 0 0 
0 0 0 0 0 0 0 0 0 
0 0 0 0 0 0 0 0 0 
0 0 0 0 0 0 0 0 0 
0 0 0 0 0 0 0 0 0 
0 0 0 0 0 0 0 0 0 
0 0 0 0 0 0 0 0 0 
0 0 0 0 0 0 0 0 0 
0 0 0 0 0 0 0 0 0 
0 0 0 0 0 0 0 0 0 
0 0 0 0 0 0 0 0 0 
0 0 0 0 0 0 0 0 0 
0 0 0 0 0 0 0 0 0 
0 0 0 0 0 0 0 0 0 
0 0 0 0 0 0 0 0 0 
0 0 0 0 0 0 0 0 0 
0 0 0 0 0 0 0 0 0 
0 0 0 0 0 0 0 0 0 
0 0 0 0 0 0 0 0 0 
0 0 0 0 0 0 0 0 0 
0 0 0 0 0 0 0 0 0 
0 0 0 0 0 0 0 0 0 
0 0 0 0 0 0 0 0 0 
0 0 0 0 0 0 0 0 0 
0 0 0 0 0 0 0 0 0 
0 0 0 0 0 0 0 0 0 
0 0 0 0 0 0 0 0 0 
0 0 0 0 0 0 0 0 0 
0 0 0 0 0 0 0 0 0 
0 0 0 0 0 0 0 0 0 
0 0 0 0 0 0 0 0 0 
0 0 0 0 0 0 0 0 0 
0 0 0 0 0 0 0 0 0 
0 0 0 0 0 0 0 0 0 
0 0 0 0 0 0 0 0 0 
0 0 0 0 0 0 0 0 0 
0 0 0 0 0 0 0 0 0 
0 0 0 0 0 0 0 0 0 
0 0 0 0 0 0 0 0 0 
0 0 0 0 0 0 0 0 0 
0 0 0 0 0 0 0 0 0 
0 0 0 0 0 0 0 0 0 
0 0 0 0 0 0 0 0 0 
0 0 0 0 0 0 0 0 0 
0 0 0 0 0 0 0 0 0 
0 0 0 0 0 0 0 0 0 
0 0 0 0 0 0 0 0 0 
0 0 0 0 0 0 0 0 0 
0 0 0 0 0 0 0 0 0 
0 0 0 0 0 0 0 0 0 
0 0 0 0 0 0 0 0 0 
0 0 0 0 0 0 0 0 0 
0 0 0 0 0 0 0 0 0 
0 0 0 0 0 0 0 0 0 
0 0 0 0 0 0 0 0 0 
0 0 0 0 0 0 0 0 0 
0 0 0 0 0 0 0 0 0 
0 0 0 0 0 0 0 0 0 
0 0 0 0 0 0 0 0 0 
0 0 0 0 0 0 0 0 0 
0 0 0 0 0 0 0 0 0 
0 0 0 0 0 0 0 0 0 
0 0 0 0 0 0 0 0 0 
0 0 0 0 0 0 0 0 0 
0 0 0 0 0 0 0 0 0 
0 0 0 0 0 0 0 0 0 
0 0 0 0 0 0 0 0 0 
0 0 0 0 0 0 0 0 0 
0 0 0 0 0 0 0 0 0 
0 0 0 0 0 0 0 0 0 
0 0 0 0 0 0 0 0 0 
0 0 0 0 0 0 0 0 0 
0 0 0 0 0 0 0 0 0 
0 0 0 0 0 0 0 0 0 
0 0 0 0 0 0 0 0 0 
0 0 0 0 0 0 0 0 0 
0 0 0 0 0 0 0 0 0 
0 0 0 0 0 0 0 0 0 
0 0 0 0 0 0 0 0 0 
0 0 0 0 0 0 0 0 0 
0 1.10979e-09 0 0 0 0 0 0 0 
0 0 0 0 0 0 0 0 0 
0 0 0 0 0 0 0 0 0 
0 0 0 0 0 0 0 0 0 
0 0 0 0 0 0 0 0 0 
0 0 0 0 0 0 0 0 0 
0 0 0 0 0 0 0 0 0 
0 0 0 0 0 0 0 0 0 
0 0 0 0 0 0 0 0 0 
0 0 0 0 0 0 0 0 0 
0 0 0 0 0 0 0 0 0 
0 0 0 0 0 0 0 0 0 
0 0 0 0 0 0 0 0 0 
0 0 0 0 0 0 0 0 0 
0 0 0 0 0 0 0 0 0 
0 0 0 0 0 0 0 0 0 
0 0 0 0 0 0 0 0 0 
0 0 0 0 0 0 0 0 0 
0 0 0 0 0 0 0 0 0 
0 0 0 0 0 0 0 0 0 
0 0 2.20803e-10 0 0 0 0 0 0 
0 0 0 0 0 0 0 0 0 
0 0 0 0 0 0 0 0 0 
0 0 0 0 0 0 0 0 0 
0 0 0 0 0 0 0 0 0 
0 0 0 0 0 0 0 0 0 
0 0 0 0 0 0 0 0 0 
0 0 0 0 0 0 0 0 0 
0 0 0 0 0 0 0 0 0 
0 0 0 0 0 0 0 0 0 
0 0 0 0 0 0 0 0 0 
0 0 0 0 0 0 0 0 0 
0 0 0 0 0 0 0 0 0 
0 0 0 8.48096e-07 7.454e-09 0 0 1.03708e-09 0 
0 0 0 0 0 0 0 0 6.82894e-07 
1.54234e-09 0 0 0 0 0 0 0 0 
0 0 0 0 0 0 0 0 0 
0 0 0 0 0 0 0 0 0 
0 0 0 0 0 0 0 0 0 
0 0 0 0 0 0 0 0 0 
0 0 0 0 0 0 0 0 0 
0 0 0 0 0 0 0 0 0 
0 0 0 0 0 0 0 0 0 
0 0 0 0 0 0 0 0 0 
3.48111e-09 0 0 8.94385e-07 0 0 0 0 0 
8.28197e-10 0 0 0 0 0 0 0 0 
0 0 2.02975e-09 0 0 0 0 0 0 
0 0 0 0 0 5.44244e-10 0 0 0 
0 0 0 0 0 0 0 0 0 
0 0 0 0 0 0 0 0 0 
0 0 0 0 0 0 0 0 0 
0 0 0 0 0 0 0 0 0 
0 0 0 0 0 0 1.75733e-11 0 0 
0 0 0 0 4.87892e-09 6.85194e-07 0 0 0 
0 0 0 0 0 8.85631e-09 0 0 0 
0 0 0 0 0 0 0 0 1.47083e-09 
0 0 0 0 0 0 0 0 0 
0 0 0 0 0 0 0 0 0 
0 0 0 0 0 0 0 0 0 
6.84523e-07 0 0 0 0 0 0 0 0 
0 0 0 0 0 0 0 0 0 
0 0 0 0 0 0 0 0 0 
0 0 0 0 0 0 0 0 0 
0 0 0 0 0 0 0 0 0 
0 0 0 0 0 0 0 0 0 
0 0 0 0 0 0 6.84876e-07 5.26876e-09 0 
0 0 0 0 0 0 8.55607e-07 0 0 
0 0 0 0 0 0 0 0 0 
0 0 0 0 0 0 0 0 0 
0 0 0 0 0 0 0 0 0 
0 0 0 0 0 0 0 0 0 
0 0 0 0 0 0 0 0 0 
0 0 0 0 0 0 0 0 0 
0 0 0 0 0 0 0 0 0 
0 0 0 0 0 0 0 0 0 
0 0 0 0 0 0 2.01358e-09 0 0 
0 0 0 0 0 0 2.51753e-09 0 0 
0 0 0 0 0 7.92478e-07 1.35168e-08 0 0 
0 0 7.33576e-07 0 0 0 0 0 0 
0 0 0 0 0 0 0 0 0 
0 2.41442e-09 0 0 0 0 0 0 0 
0 0 0 0 0 0 0 0 0 
0 0 0 0 0 0 0 0 0 
0 0 0 0 0 0 0 0 0 
0 0 0 0 0 0 0 0 0 
0 0 0 0 0 0 0 0 0 
0 0 0 0 0 0 0 5.78455e-09 0 
0 0 0 0 0 0 0 0 0 
1.52069e-09 0 0 0 1.2652e-09 2.09689e-09 0 0 0 
0 0 0 0 0 0 0 0 0 
0 0 0 0 0 0 0 7.6606e-07 0 
7.65882e-07 8.26281e-09 0 0 0 0 0 0 7.07802e-07 
0 0 0 0 0 0 0 0 0 
0 0 0 0 0 0 0 0 0 
0 0 0 0 0 0 0 0 0 
0 0 0 0 0 0 0 0 0 
0 0 0 0 0 0 0 0 0 
0 0 0 0 0 0 0 0 0 
0 0 0 0 0 0 0 0 0 
0 0 0 5.16014e-09 5.91464e-09 0 0 0 0 
0 0 0 0 0 0 1.93983e-09 0 0 
0 0 0 0 0 0 0 0 0 
0 0 2.82078e-09 0 0 0 0 0 0 
0 0 0 0 0 0 0 0 0 
0 0 0 0 0 0 0 0 0 
0 0 0 0 0 0 0 0 0 
0 0 0 0 0 0 0 0 0 
0 0 0 0 0 0 0 0 0 
0 0 0 0 0 0 0 0 0 
3.31119e-09 6.88181e-07 0 0 0 0 0 0 0 
0 0 0 0 6.8936e-07 0 0 0 0 
0 9.62944e-07 9.81925e-07 0 2.40448e-09 7.67752e-07 0 0 0 
0 0 0 0 0 0 0 0 0 
0 1.98256e-09 0 0 0 0 0 0 0 
0 0 0 0 0 0 0 0 0 
0 0 0 0 0 0 0 0 0 
0 0 0 0 0 0 0 0 0 
0 0 0 0 0 0 0 0 0 
0 0 0 0 0 0 0 0 0 
0 0 0 0 0 4.93229e-09 6.85097e-07 5.02067e-09 0 
0 0 0 0 0 0 0 0 0 
0 0 0 0 0 0 0 0 0 
0 0 0 0 0 0 0 0 0 
0 0 0 0 0 0 0 0 0 
0 0 0 0 0 0 0 0 0 
0 7.09405e-07 0 0 0 0 0 0 0 
0 0 0 0 0 0 1.52387e-09 0 0 
0 0 0 0 0 0 0 0 0 
0 0 0 0 0 0 0 0 0 
0 0 0 0 0 0 0 0 0 
0 0 0 0 0 0 0 0 5.72449e-09 
0 0 1.37124e-09 0 0 0 0 0 0 
0 0 0 0 0 0 0 0 0 
0 0 0 0 0 0 0 3.97694e-09 0 
0 0 0 0 0 0 0 0 0 
0 0 0 0 0 0 0 0 0 
0 0 0 0 0 0 0 0 0 
0 0 0 0 0 0 0 5.04784e-09 0 
0 0 0 0 0 0 0 0 0 
0 0 0 0 0 0 0 0 0 
0 0 0 0 0 0 0 0 0 
0 0 0 5.46491e-10 0 0 0 0 0 
0 0 0 0 0 0 0 0 0 
0 0 0 0 0 0 0 0 0 
0 0 2.24396e-09 0 0 0 0 0 0 
0 4.91213e-10 1.62232e-09 0 0 0 0 0 0 
0 0 0 0 0 0 0 5.08311e-09 0 
0 0 0 0 0 0 0 0 0 
0 0 0 0 0 0 0 0 0 
7.65764e-07 0 0 0 0 0 0 0 0 
0 0 0 0 0 0 0 0 0 
0 0 0 0 0 0 0 0 0 
0 0 0 0 0 0 0 0 0 
0 0 0 0 0 0 0 1.8481e-09 0 
0 0 0 0 0 0 0 0 0 
0 0 0 0 0 0 0 9.38304e-07 9.35305e-07 
0 0 0 0 0 0 0 0 0 
0 0 0 0 0 0 0 0 6.85324e-07 
0 0 0 0 0 0 0 0 0 
0 6.94633e-07 8.43557e-09 0 0 0 0 0 0 
6.29356e-09 0 0 0 0 0 0 0 0 
0 0 0 0 0 0 0 0 0 
0 0 0 0 0 0 0 0 0 
0 0 0 0 0 0 0 0 0 
0 0 0 0 0 0 0 0 0 
0 0 0 0 0 0 0 0 0 
0 0 0 0 0 1.5539e-09 0 0 0 
0 0 0 0 0 0 6.83749e-07 2.14037e-09 0 
0 0 0 0 0 0 0 0 0 
0 0 0 0 0 0 5.09783e-09 0 0 
0 0 0 0 3.90937e-09 0 0 0 0 
0 0 7.73586e-07 0 0 0 0 0 0 
0 0 0 0 0 0 0 0 0 
0 0 0 0 0 0 0 0 0 
0 0 0 0 0 0 0 0 0 
0 0 0 0 0 0 0 0 0 
0 0 0 0 0 0 0 0 0 
0 0 0 0 0 0 0 2.48861e-09 0 
4.7975e-09 0 0 0 0 0 0 2.88645e-09 1.4655e-09 
0 0 1.1961e-09 0 0 0 0 6.86479e-10 0 
0 0 0 0 0 0 1.04897e-08 6.93489e-07 5.58925e-09 
0 0 0 0 0 0 0 0 6.66743e-10 
0 0 0 0 0 0 0 0 0 
0 0 0 0 0 0 0 0 0 
0 0 0 0 0 0 0 0 0 
0 0 0 0 0 0 0 0 0 
7.65985e-07 0 0 0 0 0 0 0 0 
0 0 4.79363e-09 6.85598e-07 0 0 0 0 7.44147e-07 
0 2.889e-09 0 0 0 0 0 1.30362e-09 0 
0 0 0 0 0 0 0 0 0 
0 0 0 0 0 0 0 0 0 
0 0 1.52654e-09 0 0 0 0 0 0 
0 0 3.1567e-09 0 0 0 0 0 0 
0 0 0 0 0 0 0 0 0 
0 0 0 0 0 0 0 0 0 
0 0 0 0 0 0 0 0 0 
0 0 0 6.99587e-07 0 0 0 0 8.30251e-07 
0 0 0 0 0 0 0 0 0 
0 0 0 1.46107e-09 0 0 0 0 0 
0 0 7.51818e-07 0 0 0 0 0 0 
0 0 0 0 0 0 0 0 0 
1.07747e-09 0 0 8.87749e-10 0 0 0 0 0 
0 0 0 0 0 0 0 0 0 
0 1.15496e-09 0 0 0 6.95537e-07 0 0 0 
0 0 0 0 0 1.15822e-09 0 0 0 
0 0 0 0 0 0 0 0 0 
0 0 0 0 0 0 0 0 0 
0 0 0 0 0 0 0 0 0 
0 0 4.21704e-09 2.47555e-09 0 0 0 0 0 
0 0 0 0 0 0 0 0 0 
0 0 0 0 0 0 2.88173e-09 6.4963e-09 3.94018e-09 
0 6.65916e-09 7.49993e-07 0 0 0 0 0 0 
0 0 0 0 4.32139e-09 2.89964e-09 4.65966e-09 0 0 
0 0 0 0 0 0 1.72414e-09 0 0 
0 0 0 0 0 0 0 0 0 
0 0 0 0 0 7.14844e-07 0 0 0 
0 0 0 0 0 0 0 0 0 
0 0 0 0 0 0 0 0 0 
0 0 0 0 0 0 0 0 7.57808e-07 
8.73943e-09 0 7.9374e-07 0 2.73614e-09 0 0 0 0 
0 0 0 0 0 0 0 0 0 
0 0 0 0 0 0 0 0 0 
0 0 0 8.48927e-09 0 0 0 0 0 
0 0 0 0 0 0 6.99078e-07 5.43229e-09 0 
0 0 0 0 0 0 6.89387e-07 0 0 
0 0 7.77588e-09 4.09338e-09 2.75643e-09 0 0 0 0 
0 0 0 0 0 0 0 0 0 
0 0 0 0 0 0 0 0 0 
0 0 0 0 0 0 0 0 0 
0 0 0 0 0 0 0 0 0 
0 0 0 0 0 0 0 0 0 
0 0 3.4926e-09 0 0 0 0 0 0 
0 0 0 0 0 0 0 0 0 
7.47597e-07 0 0 7.71904e-07 5.21468e-09 0 0 0 0 
0 0 0 0 0 0 0 0 0 
0 0 0 0 0 0 5.17347e-09 0 3.90494e-09 
0 0 4.62694e-09 6.89562e-07 0 0 0 0 0 
0 0 0 0 0 0 0 0 0 
0 0 0 0 0 0 0 0 0 
0 0 0 0 0 0 0 0 0 
0 0 0 0 0 0 0 0 0 
0 0 0 2.15202e-09 0 0 2.13681e-09 3.60783e-09 0 
0 9.32722e-07 0 0 0 0 0 0 0 
0 0 0 0 0 0 0 7.6957e-07 0 
6.48261e-09 0 0 0 0 0 0 0 0 
0 0 0 0 0 3.22404e-09 2.08666e-09 0 0 
0 0 0 0 0 0 0 0 0 
0 0 0 0 0 0 0 0 0 
0 0 0 0 0 0 0 7.18404e-07 4.99397e-09 
0 0 0 0 0 0 0 0 0 
0 0 0 0 0 0 0 0 0 
0 0 0 0 0 0 0 0 0 
0 0 1.34762e-09 0 1.78222e-09 0 0 0 0 
4.05999e-09 0 9.47988e-07 0 0 0 0 0 0 
0 0 0 0 0 0 0 6.86809e-09 0 
0 0 3.20901e-09 0 0 0 0 0 1.36236e-09 
0 0 0 0 0 0 0 5.43576e-07 0 
0 0 0 0 0 0 0 3.51684e-09 0 
0 0 0 0 0 0 0 0 0 
0 0 0 0 0 0 0 0 0 
0 0 0 0 0 0 0 0 0 
0 0 0 0 0 0 0 0 0 
0 0 0 0 0 0 0 0 0 
0 0 0 0 0 0 0 0 0 
0 0 0 0 0 0 7.28012e-07 4.63659e-09 0 
0 0 0 0 0 0 0 0 0 
0 0 0 0 0 0 0 0 0 
0 0 0 0 0 0 0 0 4.92772e-09 
0 0 0 0 7.99339e-07 0 8.62696e-07 0 0 
0 0 0 0 0 0 0 5.29629e-10 0 
0 0 0 0 0 4.0558e-09 6.95823e-07 0 0 
0 0 0 0 0 0 0 0 0 
0 0 0 0 0 0 0 0 0 
0 0 0 0 0 0 0 0 0 
0 0 0 0 0 0 0 0 0 
2.37781e-09 0 0 0 0 0 0 5.29488e-09 0 
0 0 0 0 0 0 0 0 0 
9.63689e-07 9.79928e-07 0 0 0 0 0 0 0 
0 0 0 0 0 0 0 0 0 
0 0 2.14751e-09 0 0 0 0 4.37449e-09 0 
1.66888e-09 0 0 0 0 0 0 0 0 
0 0 0 0 0 0 0 0 0 
2.63511e-09 3.01567e-09 0 0 0 0 0 0 0 
0 0 0 0 0 0 0 0 0 
0 0 0 0 0 0 0 0 0 
0 0 0 0 0 0 0 0 0 
0 0 0 0 0 0 0 0 0 
0 0 0 0 0 0 0 0 0 
0 0 0 0 0 0 0 0 4.06489e-09 
0 0 2.40665e-09 0 4.20142e-09 0 0 0 0 
0 2.87991e-09 0 0 0 0 0 0 0 
9.43774e-07 0 0 7.85209e-07 0 1.74886e-09 0 0 0 
0 0 0 0 0 0 0 0 0 
0 0 0 0 0 0 0 0 0 
0 0 0 0 0 0 0 0 0 
0 0 0 0 0 0 0 0 0 
0 0 0 0 0 0 0 0 0 
0 0 0 4.22112e-09 7.6157e-07 0 9.8868e-09 0 0 
4.71402e-09 4.04839e-09 0 2.70607e-09 0 0 0 0 1.17895e-09 
0 0 0 0 0 0 0 0 0 
0 8.14581e-07 0 0 0 6.99028e-07 0 0 0 
0 0 0 0 0 0 0 0 0 
8.9263e-07 0 0 0 0 0 0 0 0 
0 0 0 0 0 0 0 0 0 
0 0 0 0 0 0 0 0 0 
0 0 0 0 0 0 0 0 0 
0 0 0 0 0 0 0 0 0 
0 0 0 0 0 0 0 0 0 
0 0 0 0 0 0 0 8.33333e-07 0 
0 0 0 6.93417e-07 0 0 0 0 0 
0 0 0 0 7.58951e-07 0 0 0 0 
0 0 1.1755e-08 0 0 0 4.76977e-09 0 1.78229e-09 
0 0 0 0 0 0 0 0 0 
0 0 0 0 7.99634e-07 7.42975e-09 0 0 0 
0 0 0 0 0 0 0 0 0 
0 0 0 0 0 0 0 0 0 
0 0 0 0 0 0 0 0 0 
0 0 0 0 0 0 0 0 0 
0 0 0 0 0 0 0 0 0 
0 0 0 0 0 0 0 0 6.12239e-09 
0 0 0 0 4.93193e-09 0 0 0 6.20201e-10 
0 0 0 0 0 7.37797e-09 0 0 8.90472e-09 
0 9.47283e-07 0 8.8063e-07 2.9085e-09 4.58527e-09 0 0 4.34325e-09 
1.42313e-09 0 0 0 0 0 0 0 0 
0 0 0 0 0 0 0 0 0 
0 0 0 0 0 0 0 0 0 
0 0 0 0 0 0 0 0 0 
0 0 0 0 0 0 0 0 0 
0 0 0 0 0 0 0 0 0 
0 0 0 0 0 0 0 0 0 
6.72457e-10 0 0 0 0 0 0 0 1.15457e-08 
7.81306e-07 0 0 0 0 0 0 0 0 
0 0 0 0 0 0 0 1.01952e-08 0 
0 9.2365e-07 0 0 0 0 0 0 0 
0 0 0 0 0 7.08285e-07 0 0 0 
0 2.03304e-09 0 0 4.71187e-09 0 0 0 0 
0 0 0 0 0 0 0 0 0 
0 0 0 0 0 0 0 0 0 
0 0 0 0 0 0 0 0 0 
0 0 0 0 0 0 0 0 0 
0 0 0 0 0 0 0 6.82049e-07 0 
0 0 0 0 0 0 0 0 0 
0 0 1.8277e-09 0 0 1.33716e-09 2.47437e-09 0 0 
0 0 0 0 0 0 0 0 0 
8.07448e-07 0 0 0 0 0 0 0 0 
0 0 0 1.81142e-09 0 0 0 0 0 
0 0 0 0 0 0 2.86436e-09 0 0 
0 0 0 0 0 0 0 0 0 
0 0 0 0 0 0 0 0 0 
0 0 0 0 0 0 0 0 0 
0 0 0 0 0 0 0 0 0 
0 0 0 0 0 0 2.48697e-09 0 0 
0 0 0 0 0 0 0 0 0 
0 3.78733e-09 0 0 0 0 0 0 0 
0 0 0 0 0 9.85036e-10 0 0 0 
0 0 0 0 0 0 0 0 0 
0 0 0 0 0 0 0 0 0 
0 0 0 9.07816e-07 0 9.03156e-07 1.0148e-08 0 0 
0 0 0 0 0 0 0 0 0 
0 0 0 0 0 0 0 0 0 
0 0 0 0 0 0 0 0 0 
0 0 0 0 0 0 0 0 0 
0 0 0 0 0 0 0 0 0 
0 0 0 0 0 0 0 0 0 
0 0 0 0 0 0 0 0 0 
0 0 0 0 0 0 0 0 0 
0 0 5.16918e-09 0 0 4.57594e-09 0 0 0 
0 0 0 0 0 0 0 0 0 
7.17858e-07 0 0 0 0 9.46136e-07 0 0 3.00776e-09 
0 0 0 0 0 0 0 0 0 
0 0 0 0 4.57629e-09 0 0 0 7.63992e-07 
0 0 0 0 0 0 0 0 0 
0 0 0 0 0 0 0 0 0 
0 0 0 0 0 0 0 0 0 
0 0 0 0 0 0 0 6.82342e-07 0 
0 0 0 0 0 0 0 0 0 
0 0 0 0 6.87372e-07 0 0 0 0 
0 0 0 0 9.72645e-07 9.56863e-07 0 0 0 
0 0 0 0 0 0 0 0 0 
0 1.0257e-08 0 0 0 0 0 0 1.99056e-09 
0 0 0 5.79192e-10 0 0 0 0 0 
1.53638e-09 0 0 0 0 1.34656e-08 7.44932e-07 0 0 
0 0 0 0 0 0 0 0 0 
0 0 0 0 0 0 0 0 0 
0 0 0 0 0 0 0 0 0 
0 0 0 0 0 0 0 0 2.14021e-09 
0 0 0 0 0 0 0 0 0 
0 0 0 0 0 0 0 2.43111e-09 0 
0 0 0 0 0 1.24005e-08 0 0 0 
0 0 0 0 0 0 0 0 0 
0 0 0 0 0 0 0 0 0 
0 0 0 0 0 0 0 0 0 
0 0 1.82925e-09 0 0 0 0 0 0 
0 0 7.57575e-07 0 0 0 0 0 0 
0 0 0 0 0 0 0 0 0 
0 0 0 0 0 0 0 0 0 
0 0 0 0 0 0 0 0 0 
1.93694e-09 0 0 0 0 0 0 0 0 
0 0 0 0 0 0 0 0 0 
0 0 0 0 0 0 0 0 3.54213e-09 
0 0 0 0 0 0 0 0 0 
0 0 0 0 0 0 0 0 0 
3.07094e-09 0 0 0 0 0 0 0 0 
0 0 0 0 0 0 7.31189e-07 0 0 
0 0 0 0 0 0 0 0 0 
0 0 0 0 0 0 0 0 0 
0 0 0 0 0 0 0 0 0 
0 0 0 0 0 0 0 0 0 
0 0 0 0 0 0 0 0 0 
0 0 0 0 0 0 0 2.02232e-09 0 
0 0 0 0 0 9.5219e-09 7.19823e-07 0 0 
0 0 0 0 0 0 0 0 0 
0 0 0 0 0 0 0 0 0 
0 0 0 0 0 0 0 0 0 
0 0 0 6.93861e-07 0 0 0 0 0 
4.08503e-09 0 0 0 0 0 0 0 0 
0 0 0 0 0 0 0 0 0 
0 0 0 0 0 0 0 0 0 
0 0 0 0 0 2.02986e-09 0 0 0 
0 0 0 0 0 0 0 0 0 
0 0 0 0 0 0 6.87301e-07 0 0 
0 0 0 0 0 0 0 0 0 
0 0 0 0 0 0 0 0 0 
0 0 0 0 0 0 0 0 0 
0 0 1.57894e-09 0 0 0 5.26397e-09 6.88288e-07 0 
0 0 0 0 9.64689e-09 4.13868e-09 0 0 0 
0 1.65131e-09 0 0 0 0 0 0 1.97007e-09 
0 6.63589e-10 0 0 0 0 0 0 0 
0 0 0 0 0 0 0 0 0 
0 0 0 0 0 0 6.8288e-07 4.60997e-09 3.98165e-09 
0 0 0 0 0 0 0 0 0 
0 0 0 0 0 0 0 0 0 
0 0 0 0 0 0 0 0 0 
2.68978e-09 0 0 0 0 0 0 7.19721e-07 0 
0 0 0 0 0 0 0 0 0 
0 0 0 0 5.04795e-09 0 0 0 0 
0 0 0 0 0 0 0 0 0 
0 0 0 0 0 0 0 7.00885e-07 0 
0 0 0 0 0 0 0 0 0 
0 0 0 0 0 0 0 0 0 
0 0 0 0 0 0 0 0 0 
0 0 0 0 0 0 0 0 0 
0 0 0 0 0 0 0 0 0 
0 1.42311e-09 0 0 0 0 0 0 0 
0 0 0 0 0 0 0 0 0 
0 0 0 0 0 0 0 0 0 
0 0 0 0 0 6.87365e-07 4.94165e-09 4.87056e-09 0 
0 0 0 0 0 0 0 0 0 
4.10051e-09 0 6.96893e-07 0 0 0 0 0 0 
0 0 0 0 0 0 0 0 0 
0 0 0 0 0 0 0 0 0 
0 0 0 0 0 0 0 0 0 
0 0 0 0 0 0 0 0 0 
0 0 2.5365e-10 0 0 0 0 0 0 
0 0 0 0 0 0 0 0 0 
0 0 0 0 0 0 0 0 0 
0 0 0 1.06019e-06 9.79642e-07 0 9.47733e-10 0 0 
0 0 0 0 0 0 0 0 0 
1.21243e-09 0 0 0 0 0 0 0 0 
0 0 0 0 0 0 0 0 0 
0 0 0 0 0 0 0 0 0 
0 0 0 0 0 0 0 0 0 
0 0 0 0 0 0 0 0 0 
0 0 0 0 0 0 0 0 0 
0 0 0 0 0 0 0 0 0 
0 0 0 0 0 0 0 0 0 
0 0 0 0 0 0 0 0 0 
0 0 0 8.91165e-07 0 0 8.15824e-09 0 0 
0 0 0 0 0 0 0 0 0 
0 0 0 0 0 0 0 0 0 
3.2256e-09 0 0 0 0 0 0 0 0 
0 0 0 0 0 0 0 0 0 
0 0 0 0 0 0 0 0 0 
0 0 0 0 0 0 0 0 0 
0 0 0 0 0 0 0 0 0 
0 0 0 0 0 0 0 0 0 
0 0 0 0 0 0 4.67094e-09 6.85561e-07 0 
0 0 0 0 2.00012e-09 0 0 0 0 
7.11918e-07 0 4.19749e-09 0 0 0 0 0 0 
0 0 0 0 0 0 0 0 0 
0 0 6.50226e-10 0 0 0 0 0 0 
7.07129e-07 0 0 0 0 0 0 0 0 
0 6.96719e-07 0 0 0 0 0 0 0 
0 0 0 0 0 0 0 0 0 
0 0 0 0 0 0 0 0 0 
0 0 0 6.73201e-09 0 0 0 0 0 
0 0 0 0 0 6.8197e-09 7.20903e-07 0 0 
0 0 0 0 0 0 0 0 0 
2.92734e-09 0 0 0 0 0 0 1.94768e-09 0 
0 0 0 0 0 0 0 0 0 
0 9.87198e-10 0 0 0 0 0 0 0 
0 0 0 0 0 0 0 0 0 
0 0 0 2.95496e-09 0 0 0 0 0 
0 1.21607e-08 0 0 0 0 0 0 0 
0 0 0 0 0 0 0 0 0 
0 0 0 0 0 0 0 0 0 
0 0 0 6.82767e-07 0 0 0 0 0 
0 0 0 0 7.21802e-07 0 0 0 5.61173e-09 
0 0 0 5.71032e-10 0 0 0 0 0 
0 2.65169e-09 0 0 0 0 0 0 6.96272e-07 
4.97344e-09 0 0 0 0 0 0 2.03461e-09 0 
0 0 0 0 0 0 0 0 0 
0 0 0 0 0 0 0 0 0 
0 0 0 0 0 0 0 0 5.58259e-09 
0 0 0 0 0 0 0 0 0 
0 0 0 0 0 0 0 0 0 
0 0 0 0 0 0 0 0 0 
0 0 0 0 0 0 0 0 0 
0 0 0 0 0 0 0 0 0 
0 0 0 0 0 0 4.08263e-09 0 0 
2.57124e-09 0 0 0 0 0 0 0 0 
0 2.59673e-09 1.528e-09 0 0 0 0 0 0 
0 0 1.92634e-09 7.09568e-07 5.37978e-09 0 0 0 0 
0 0 0 0 0 0 0 0 0 
0 0 0 0 0 0 0 0 0 
6.91628e-07 0 0 0 0 0 0 0 0 
0 0 0 0 0 0 0 0 0 
0 0 0 0 0 0 0 0 0 
0 0 0 0 0 0 0 0 0 
0 0 0 3.45043e-09 0 0 0 0 2.11273e-09 
0 2.68862e-09 7.87371e-07 4.0714e-09 0 3.83123e-09 0 7.03706e-07 0 
0 0 0 0 1.54567e-09 0 0 0 0 
0 2.52848e-09 0 0 0 0 0 0 0 
0 0 0 0 0 0 0 0 0 
0 0 0 0 0 0 0 0 0 
0 0 0 1.05637e-06 1.166e-06 0 0 0 0 
0 0 0 0 0 0 0 0 0 
0 0 0 0 0 0 0 0 0 
0 0 0 0 0 0 0 0 0 
0 0 0 0 0 0 0 0 0 
0 0 0 0 0 7.53792e-07 0 0 0 
0 0 4.82042e-09 0 0 0 0 0 0 
2.58765e-09 0 0 0 0 7.13748e-07 0 0 0 
0 0 0 0 0 0 0 0 0 
0 0 0 0 0 0 3.97711e-09 0 0 
0 0 0 0 0 0 0 0 0 
0 0 0 0 0 1.01859e-06 0 0 4.46742e-09 
0 0 0 0 0 0 0 0 8.18436e-07 
0 0 0 0 0 0 0 0 0 
0 0 0 0 0 0 0 0 0 
0 0 0 0 0 0 0 0 0 
0 0 0 0 0 0 0 0 0 
0 0 0 0 7.93782e-07 0 0 0 0 
0 0 0 0 0 0 0 0 0 
2.72351e-09 0 0 0 0 0 0 0 0 
0 0 0 0 0 0 0 7.23361e-07 0 
0 2.31119e-09 0 0 0 0 0 0 0 
0 0 0 1.65766e-09 0 0 0 0 0 
0 0 0 0 0 0 0 0 0 
0 8.22692e-07 0 0 0 0 0 0 0 
0 0 0 0 0 0 0 0 0 
0 0 0 0 0 0 0 0 0 
0 0 0 0 0 6.07494e-09 7.40684e-07 3.66834e-09 0 
4.27551e-09 0 0 2.52506e-09 0 0 0 0 0 
0 0 0 7.05125e-07 0 0 0 0 0 
0 0 0 0 0 0 0 0 0 
0 0 0 8.15525e-07 9.14319e-09 0 0 0 0 
1.92878e-09 0 8.2148e-09 0 0 0 0 0 0 
0 0 0 0 0 0 0 0 0 
0 7.09283e-07 0 2.26614e-09 0 0 0 0 0 
0 0 0 3.39324e-09 0 0 0 0 0 
0 0 0 0 0 0 0 0 0 
0 0 0 0 0 0 0 0 0 
0 0 0 0 0 0 3.1258e-09 0 0 
0 0 0 0 0 0 6.52009e-10 0 3.29362e-09 
0 0 0 0 0 1.09801e-08 0 0 0 
7.13763e-07 0 0 0 0 0 0 0 0 
0 0 0 0 0 8.18026e-07 0 1.68298e-09 0 
0 0 0 0 0 0 2.70156e-09 0 0 
0 0 0 0 0 0 2.07586e-09 0 0 
0 3.21618e-09 0 0 0 0 0 0 0 
0 0 0 0 0 0 0 0 0 
0 0 0 0 0 0 0 0 0 
0 0 0 0 0 0 0 0 0 
0 0 0 0 0 0 0 0 0 
0 0 0 0 0 0 0 0 7.16139e-07 
0 0 0 0 8.54473e-10 0 0 0 0 
0 0 0 0 0 0 7.02247e-07 0 2.63823e-09 
0 0 0 0 0 0 0 0 0 
0 0 0 0 1.00497e-06 1.03619e-06 1.92432e-09 0 0 
0 0 4.12672e-09 0 6.95335e-07 0 0 0 0 
0 0 0 0 0 0 0 0 0 
0 0 5.92319e-09 0 0 0 0 0 0 
0 0 0 0 0 0 0 0 0 
0 0 0 0 0 0 0 0 0 
0 0 0 0 0 0 0 0 0 
0 0 0 0 0 0 0 0 0 
0 0 0 0 0 0 0 0 0 
0 0 0 0 0 0 0 0 0 
0 1.45242e-09 0 0 0 0 2.10252e-09 0 0 
0 0 0 0 0 0 0 0 0 
0 0 0 0 0 0 0 0 0 
1.73649e-09 0 0 0 0 0 0 0 0 
0 0 0 5.48555e-09 8.82619e-07 0 0 0 0 
0 0 0 0 0 0 0 0 0 
0 0 0 0 0 0 0 0 0 
0 0 0 0 0 0 0 0 0 
0 9.56612e-10 0 0 0 0 0 0 0 
0 0 0 0 0 0 0 0 0 
0 0 0 0 0 3.81233e-09 0 0 2.97008e-09 
0 0 0 0 0 0 0 0 0 
0 0 0 0 0 0 0 1.08059e-06 1.08362e-08 
0 0 0 0 2.63112e-09 0 0 0 2.60572e-09 
9.7865e-10 0 0 0 0 0 0 0 0 
0 0 4.29376e-09 0 1.05668e-06 0 0 0 0 
0 0 0 0 0 0 0 0 0 
0 0 0 0 0 0 0 0 0 
0 0 0 0 0 0 0 0 0 
7.9835e-09 0 0 0 0 0 0 0 6.90518e-07 
0 0 0 0 0 0 2.02748e-09 0 1.03294e-09 
0 0 0 0 0 0 0 7.13599e-07 0 
0 0 0 0 0 0 0 0 0 
0 0 0 0 2.57029e-09 0 0 0 1.01191e-06 
0 0 0 0 7.99276e-07 0 0 0 0 
0 0 0 0 0 0 0 2.12441e-09 0 
0 7.20338e-07 0 0 0 9.86243e-07 0 0 0 
0 3.68334e-10 0 0 0 0 0 0 0 
0 0 0 0 0 0 0 0 0 
0 0 0 0 0 0 0 0 0 
0 0 0 0 0 0 0 0 0 
0 0 0 0 0 0 0 0 0 
0 0 0 0 0 0 0 0 0 
0 0 0 0 0 0 0 0 0 
0 0 0 2.23521e-09 0 0 1.66959e-09 0 0 
6.85869e-09 0 0 1.02071e-06 0 0 0 4.1644e-09 0 
0 0 0 0 0 0 7.06709e-07 0 0 
2.37089e-09 0 4.40832e-09 0 3.70234e-09 0 0 0 0 
0 0 0 0 0 0 0 0 0 
0 0 0 0 0 0 0 0 0 
0 0 0 0 0 0 0 0 0 
0 0 7.19732e-07 0 0 0 0 0 0 
0 0 4.05121e-09 0 0 0 0 0 6.91247e-07 
0 1.70049e-09 0 0 0 0 0 0 0 
0 0 7.50478e-09 7.88702e-07 0 4.44027e-09 0 1.50606e-09 0 
0 0 0 0 0 0 0 0 0 
0 0 0 0 9.80118e-07 0 0 4.50393e-09 0 
7.42145e-07 0 0 7.30179e-07 4.66954e-09 0 0 5.30353e-09 0 
0 2.56314e-09 0 0 0 0 0 0 2.24372e-09 
1.9165e-09 0 0 0 0 0 0 0 0 
0 0 0 0 0 0 0 0 0 
0 0 0 0 0 0 0 0 0 
0 0 0 0 0 0 0 0 0 
0 0 0 0 0 0 0 0 0 
0 0 0 0 0 0 0 0 0 
0 0 0 0 0 0 8.19928e-07 0 0 
0 0 0 0 0 0 0 0 0 
0 0 0 0 0 0 0 0 0 
0 0 0 0 4.77642e-09 0 6.35416e-09 0 0 
0 0 0 0 0 5.73785e-09 4.59089e-09 0 0 
0 0 0 0 0 0 0 0 0 
0 0 0 0 0 0 0 0 0 
0 0 0 0 0 0 0 0 0 
0 0 0 0 0 3.95907e-09 0 0 0 
0 0 3.52439e-09 0 0 0 0 0 0 
0 0 0 0 0 0 0 0 0 
0 0 0 0 0 0 0 0 0 
3.29576e-09 0 0 0 7.22756e-07 0 0 0 0 
0 9.93758e-10 0 0 0 0 0 0 0 
0 0 0 0 0 0 0 7.34489e-09 0 
0 0 0 0 0 8.33177e-07 0 0 0 
0 0 0 0 0 0 0 0 0 
0 0 0 0 0 0 0 0 0 
0 0 0 0 0 0 0 0 0 
0 0 0 9.37855e-07 9.5686e-07 0 0 0 0 
0 0 0 6.95073e-09 0 0 0 0 0 
0 0 0 0 0 0 0 0 0 
0 0 0 0 0 0 0 9.44489e-07 0 
0 0 0 0 5.40778e-09 0 0 0 7.16935e-07 
0 1.66023e-09 0 0 7.01208e-07 0 0 0 0 
0 0 0 2.73101e-09 0 0 0 0 0 
0 0 7.27806e-07 0 0 0 0 8.19258e-07 0 
0 0 4.8991e-10 0 0 0 0 0 0 
0 0 0 0 0 0 0 0 0 
0 0 0 0 0 0 0 0 0 
0 0 0 0 0 0 6.23084e-09 0 0 
1.87394e-09 2.15298e-09 0 0 0 6.83297e-07 0 0 0 
0 0 0 2.04173e-09 6.90353e-07 3.05561e-09 0 0 0 
0 0 0 0 0 0 0 0 0 
0 0 0 0 5.11872e-09 0 0 0 0 
0 6.27986e-09 0 0 0 0 0 0 0 
1.85116e-09 0 6.99423e-07 0 0 0 0 0 0 
7.27494e-07 0 0 0 0 0 0 0 0 
0 0 0 0 0 0 0 0 0 
0 0 0 0 0 0 0 0 0 
0 0 0 0 0 0 0 0 0 
0 0 0 0 0 0 0 0 0 
0 0 0 0 0 0 0 0 1.7552e-09 
0 0 0 0 0 3.52296e-09 0 0 0 
0 0 0 0 0 0 0 1.0678e-06 1.24729e-06 
1.13153e-06 0 0 0 8.28529e-07 0 0 0 4.68995e-09 
0 0 3.38356e-09 0 0 0 0 0 0 
0 0 0 2.65354e-09 0 1.09825e-09 3.73678e-09 0 0 
0 0 0 0 0 0 0 0 0 
0 0 0 0 0 0 0 0 0 
0 0 0 0 0 0 0 0 0 
0 0 0 0 0 0 0 0 0 
0 0 0 0 0 0 0 0 7.95006e-09 
9.3658e-07 0 0 0 0 0 0 0 0 
0 0 0 0 0 0 2.14949e-09 0 0 
0 0 0 0 0 0 0 0 0 
0 0 0 0 0 0 6.56807e-09 7.84023e-07 0 
0 4.2354e-09 0 0 0 0 0 0 0 
0 0 0 0 0 0 0 0 7.03202e-07 
1.56762e-09 0 0 0 2.84521e-09 0 0 0 0 
0 0 0 0 0 0 0 0 0 
0 0 0 0 0 0 0 0 0 
0 0 0 0 0 0 0 0 0 
0 0 0 0 0 0 0 0 4.28774e-09 
0 9.24816e-07 0 0 0 0 0 0 0 
0 0 0 0 0 0 0 0 0 
0 0 0 0 0 0 0 0 0 
0 1.90939e-09 0 0 0 7.90864e-07 0 0 4.39602e-09 
0 0 0 0 0 0 0 0 0 
6.02952e-10 0 0 0 0 0 0 0 0 
0 0 0 0 0 2.09325e-09 0 0 0 
0 0 0 0 0 0 0 0 0 
0 0 0 0 0 0 0 0 0 
0 0 0 0 0 0 0 0 0 
0 0 0 0 0 0 0 0 0 
0 0 1.98584e-08 0 0 0 0 0 0 
0 0 0 0 0 0 0 0 0 
0 0 0 1.35188e-09 0 0 0 2.69312e-09 0 
4.75331e-09 7.56966e-07 2.59591e-09 0 0 0 6.52253e-09 0 6.43146e-09 
0 0 0 0 9.25795e-07 0 0 0 0 
0 0 0 0 0 0 0 0 0 
0 0 0 0 0 0 2.51062e-09 0 0 
0 0 0 0 0 0 0 0 0 
0 0 0 0 0 0 0 0 0 
0 0 0 0 0 0 0 0 0 
0 0 0 0 0 0 0 0 0 
0 0 0 0 0 0 0 0 0 
0 0 0 0 0 0 0 0 0 
0 0 0 0 0 3.44905e-09 6.85798e-07 6.36447e-09 0 
0 4.39181e-09 0 0 0 1.77539e-09 0 0 0 
0 0 0 0 2.97171e-09 9.21133e-07 0 4.20514e-09 2.017e-09 
0 0 0 0 0 0 0 0 0 
0 0 0 0 0 0 0 0 0 
0 0 0 0 0 0 0 0 0 
0 0 0 0 0 0 0 0 0 
0 0 0 0 0 0 0 0 0 
0 0 0 0 0 0 0 4.38657e-09 0 
0 0 0 1.08738e-09 0 0 0 0 0 
0 0 0 0 0 0 0 0 0 
0 0 0 0 0 0 0 3.51733e-09 0 
0 0 0 2.01873e-09 0 0 0 0 0 
0 0 0 0 0 0 0 0 0 
0 0 0 0 0 0 0 0 0 
0 0 0 0 0 0 0 0 6.91773e-07 
0 0 0 0 0 0 0 0 0 
0 0 0 0 0 0 0 0 0 
0 0 0 0 0 0 0 0 0 
0 0 0 0 0 0 0 0 6.82239e-07 
0 0 0 0 0 0 0 0 0 
0 0 0 0 0 0 0 0 0 
0 0 0 0 0 0 0 0 0 
0 0 0 0 9.19442e-10 0 0 0 0 
0 0 0 0 0 0 0 5.46791e-09 0 
1.90277e-09 0 0 0 4.79182e-09 0 0 0 0 
0 0 0 0 0 0 0 0 3.47927e-09 
0 0 0 0 0 0 0 0 0 
0 0 0 0 0 0 0 0 0 
0 0 0 0 0 0 0 0 0 
0 0 0 0 0 0 0 0 0 
0 0 0 9.78178e-10 0 0 0 0 0 
0 0 0 0 0 0 0 0 0 
0 0 0 0 0 0 0 0 0 
0 0 0 0 0 0 0 0 0 
0 0 0 0 0 0 0 0 0 
0 0 0 0 0 7.25804e-07 0 3.35577e-09 0 
0 0 0 0 0 0 0 0 0 
0 0 0 0 0 0 0 0 0 
0 0 0 0 0 0 0 0 0 
0 0 0 0 0 0 0 0 0 
0 0 0 0 0 0 0 0 0 
0 0 0 0 0 0 0 0 6.99352e-07 
0 0 0 0 0 0 0 0 0 
0 0 0 0 0 0 0 0 0 
0 0 0 0 0 0 0 0 0 
0 0 0 0 0 0 0 0 1.41684e-09 
0 0 0 0 0 0 0 0 3.75347e-09 
0 0 0 0 0 0 0 0 0 
0 0 0 0 0 2.26621e-09 0 0 0 
0 0 0 0 0 0 0 0 0 
0 0 0 0 0 0 0 0 0 
0 0 0 0 0 0 0 0 0 
0 0 0 0 0 0 0 0 0 
0 0 4.52781e-09 0 7.15109e-07 0 0 0 0 
0 0 0 0 0 0 0 0 0 
0 0 0 0 0 0 0 2.74391e-09 0 
0 0 0 0 0 0 0 0 0 
0 0 0 0 6.1351e-09 7.21981e-07 6.94385e-09 0 0 
4.76431e-09 5.62399e-10 0 0 0 0 0 0 0 
0 0 0 0 6.91854e-07 0 0 0 0 
0 0 0 0 0 0 0 0 0 
0 0 0 0 0 0 0 0 0 
0 0 0 0 0 0 0 0 0 
0 0 0 0 0 0 0 0 0 
0 0 0 0 0 0 0 0 0 
0 0 0 0 0 0 0 2.57837e-09 0 
0 0 3.18855e-09 0 0 0 3.33586e-09 6.83954e-07 0 
5.09334e-09 0 0 0 0 0 0 6.64694e-10 0 
6.85675e-07 0 0 1.90743e-09 0 0 0 0 0 
1.66236e-08 7.03655e-07 0 0 0 0 0 0 0 
0 0 1.03452e-09 0 0 1.67179e-09 0 0 0 
0 0 9.15842e-07 0 0 0 0 0 0 
0 0 0 0 0 0 0 0 0 
0 0 0 0 0 0 0 0 0 
0 0 0 0 0 0 0 0 0 
0 0 0 0 0 0 5.34909e-09 0 0 
0 0 0 0 0 0 7.12316e-07 0 0 
0 0 0 0 0 0 0 0 0 
0 0 0 0 0 0 0 0 0 
0 0 0 0 0 0 0 0 0 
0 0 2.14624e-09 0 0 0 0 0 0 
0 0 0 0 0 0 0 0 0 
0 0 0 9.15517e-07 5.84988e-09 0 0 0 0 
0 0 0 0 0 0 0 0 0 
0 0 0 0 0 0 0 0 0 
0 0 0 0 0 0 0 0 1.3619e-09 
0 2.41345e-09 0 0 0 8.10048e-09 7.40032e-07 3.01919e-09 2.91595e-09 
0 2.75648e-09 0 0 0 0 0 0 0 
0 0 0 8.7227e-07 0 1.62628e-09 0 0 0 
0 0 0 0 0 0 0 0 0 
2.74449e-09 0 0 0 0 0 0 0 0 
0 0 0 0 0 0 0 0 0 
0 0 0 0 0 0 0 0 0 
0 0 0 0 0 0 0 0 0 
0 0 0 0 0 0 0 0 0 
0 0 0 0 0 0 0 0 0 
0 0 0 0 0 0 4.01825e-09 0 5.33357e-09 
0 0 0 0 8.69497e-07 0 0 0 3.60513e-09 
0 0 0 0 0 0 0 0 0 
0 0 7.85373e-07 0 0 8.42505e-07 1.0378e-08 0 0 
2.00139e-09 2.31596e-09 0 0 0 0 0 0 0 
0 0 0 0 0 0 0 0 0 
0 0 0 0 0 0 0 0 0 
0 0 0 0 0 0 0 0 0 
0 0 0 0 0 0 2.39708e-09 0 0 
0 0 0 0 0 0 0 0 0 
0 0 0 0 0 0 0 0 0 
0 0 0 0 0 0 0 6.86147e-07 0 
0 0 0 0 9.48079e-07 0 0 0 0 
0 0 0 0 0 0 0 7.00499e-07 1.95318e-09 
0 0 3.71097e-09 8.67063e-09 0 0 0 0 0 
0 0 0 0 0 0 0 0 0 
0 0 0 0 0 0 0 0 0 
0 0 0 0 0 0 0 0 0 
0 0 0 0 0 0 0 0 0 
0 0 0 0 0 0 0 0 0 
0 0 0 0 0 0 0 0 0 
0 0 0 0 0 0 0 0 0 
0 0 0 0 0 0 0 0 4.62512e-09 
3.9102e-09 0 0 0 8.45364e-07 0 0 0 0 
0 3.47237e-09 2.32343e-09 4.06385e-09 0 0 0 0 0 
0 1.16198e-09 0 0 0 0 0 0 0 
0 0 0 0 0 0 0 0 0 
0 0 7.4015e-07 0 0 0 0 0 0 
0 0 0 0 0 0 0 0 0 
0 0 0 0 0 0 0 0 0 
0 0 0 0 0 0 0 5.73087e-10 0 
0 0 0 0 0 0 0 0 0 
0 0 0 0 0 0 0 0 0 
0 0 0 0 0 0 0 0 0 
0 0 0 0 0 0 0 6.80177e-09 0 
0 0 0 0 6.87416e-07 1.79688e-09 0 0 0 
0 0 0 0 0 0 0 0 0 
0 0 0 0 0 0 0 0 0 
0 0 9.9146e-10 7.02936e-09 7.54604e-09 7.40022e-07 0 0 0 
0 0 0 0 0 0 0 0 0 
0 0 0 0 0 0 0 0 0 
0 0 0 0 0 0 0 0 0 
0 0 0 0 0 0 0 0 0 
0 0 0 0 0 0 0 0 0 
0 0 0 0 0 0 0 0 0 
0 0 0 0 0 0 0 0 0 
1.05659e-09 0 0 0 0 0 0 0 0 
0 0 0 0 0 0 0 0 0 
0 0 0 0 0 0 0 0 0 
0 0 0 0 0 0 9.25393e-09 0 0 
0 0 0 0 0 0 0 0 0 
0 0 0 0 0 0 0 0 0 
0 0 0 0 0 0 0 0 0 
0 0 0 0 0 0 0 0 0 
0 0 0 0 0 0 0 0 0 
0 0 0 0 0 0 0 0 0 
0 0 0 0 0 1.43223e-09 0 0 0 
0 0 0 0 0 0 0 0 0 
0 0 0 0 0 0 0 0 0 
0 0 0 0 0 0 0 0 0 
0 0 0 0 0 0 0 0 0 
0 0 0 0 0 0 0 0 0 
0 0 0 0 0 0 0 0 0 
0 0 0 0 0 0 0 0 0 
0 0 0 0 0 0 0 0 0 
0 0 0 0 0 0 0 0 0 
0 0 0 0 0 0 0 0 0 
0 0 0 0 0 0 0 0 0 
0 0 0 0 0 0 0 0 0 
0 0 0 0 0 0 0 0 0 
0 0 0 0 0 0 0 0 0 
0 0 0 0 0 0 0 0 0 
0 0 0 0 0 0 0 0 0 
0 0 0 0 0 0 0 0 0 
0 0 0 0 0 0 0 0 0 
0 0 0 0 0 0 0 0 0 
0 0 0 0 0 0 0 0 0 
0 0 0 0 0 0 0 0 0 
0 0 0 0 0 0 0 0 0 
0 0 0 0 0 0 0 0 0 
0 0 0 0 0 0 0 0 0 
0 0 0 0 0 0 0 0 0 
0 0 0 0 0 0 0 0 0 
0 0 0 0 0 0 0 0 0 
0 0 0 0 0 0 0 0 0 
0 0 0 0 0 0 0 0 0 
0 0 0 0 0 0 0 0 0 
0 0 0 0 0 0 0 0 0 
0 0 0 0 0 0 0 0 0 
0 0 0 0 0 0 0 0 0 
0 0 0 0 0 0 0 0 0 
0 0 0 0 0 0 0 0 0 
0 0 0 0 0 0 0 0 0 
0 0 0 0 0 0 0 0 0 
0 0 0 0 0 0 0 0 0 
0 0 0 0 0 0 0 0 0 
0 0 0 0 0 0 0 0 0 
0 0 0 0 0 0 0 0 0 
0 0 0 0 0 0 0 0 0 
0 0 0 0 0 0 0 0 0 
0 0 0 0 0 0 0 0 0 
0 0 0 0 0 0 0 0 0 
0 0 0 0 0 0 0 0 0 
0 0 0 0 0 0 0 0 0 
0 0 0 0 0 0 0 0 0 
0 0 0 0 0 0 0 0 0 
0 0 0 0 0 0 0 0 0 
0 0 0 0 0 0 0 0 0 
0 0 0 0 0 0 0 0 0 
0 0 0 0 0 0 0 0 0 
0 0 0 0 0 0 0 0 0 
0 0 0 0 0 0 0 0 0 
0 0 0 0 0 0 0 0 0 
0 0 0 0 0 0 0 0 0 
0 0 0 0 0 0 0 0 0 
0 0 0 0 0 0 0 0 0 
0 0 0 0 0 0 0 0 0 
0 0 0 0 0 0 0 0 0 
0 0 0 0 0 0 0 0 0 
0 0 0 0 0 0 0 0 0 
0 0 0 0 0 0 0 0 0 
0 0 0 0 0 0 0 0 0 
0 0 0 0 0 0 0 0 0 
0 0 0 0 0 0 0 0 0 
0 0 0 0 0 0 0 0 0 
0 0 0 0 0 0 0 0 0 
0 0 0 0 0 0 0 0 0 
0 0 0 0 0 0 0 0 0 
0 0 0 0 0 0 0 0 0 
0 0 0 0 0 0 0 0 0 
0 0 0 0 0 0 0 0 0 
0 0 0 0 0 0 0 0 0 
0 0 0 0 0 0 0 0 0 
0 0 0 0 0 0 0 0 0 
0 0 0 0 0 0 0 0 0 
0 0 0 0 0 0 0 0 0 
0 0 0 0 0 0 0 0 0 
0 0 0 0 0 0 0 0 0 
0 0 0 0 0 0 0 0 0 
0 0 0 0 0 0 0 0 0 
0 0 0 0 0 0 0 0 0 
0 0 0 0 0 0 0 0 0 
0 0 0 0 0 0 0 0 0 
0 0 0 0 0 0 0 0 0 
0 0 0 0 0 0 0 0 0 
0 0 0 0 0 0 0 0 0 
0 0 0 0 0 0 0 0 0 
0 0 0 0 0 0 0 0 0 
0 0 0 0 0 0 0 0 0 
0 0 0 0 0 0 0 0 0 
0 0 0 0 0 0 0 0 0 
0 0 0 0 0 0 0 0 0 
0 0 0 0 0 0 0 0 0 
0 0 0 0 0 0 0 0 0 
0 0 0 0 0 0 0 0 0 
0 0 0 0 0 0 0 0 0 
0 0 0 0 0 0 0 0 0 
0 0 0 0 0 0 0 0 0 
0 0 0 0 0 0 0 0 0 
0 0 0 0 0 0 0 0 0 
0 0 0 0 0 0 0 0 0 
0 0 0 0 0 0 0 0 0 
0 0 0 0 0 0 0 0 0 
0 0 0 0 0 0 0 0 0 
0 0 0 0 0 0 0 0 0 
0 0 0 0 0 0 0 0 0 
0 0 0 0 0 0 0 0 0 
0 0 0 0 0 0 0 0 0 
0 0 0 0 0 0 0 0 0 
0 0 0 0 0 0 0 0 0 
0 0 0 0 0 0 0 0 0 
0 0 0 0 0 0 0 0 0 
0 0 0 0 0 0 0 0 0 
0 0 0 0 0 0 0 0 0 
0 0 0 0 0 0 0 0 0 
0 0 0 0 0 0 0 0 0 
0 0 0 0 0 0 0 0 0 
0 
feature_2 1 10000 float
0 0 0 0 0 0 0 0 1.74889e-09 
0 0 0 0 0 0 0 0 0 
0 0 0 0 0 0 0 0 0 
0 0 0 0 0 0 0 0 0 
0 0 0 0 0 0 0 0 0 
0 0 0 2.16558e-09 0 0 0 0 0 
0 0 0 0 0 0 0 0 0 
0 0 1.4748e-09 0 0 0 0 1.44272e-09 0 
0 0 0 0 0 0 0 3.95245e-09 0 
0 0 0 0 0 0 0 0 0 
0 0 0 0 0 0 0 0 0 
0 0 0 0 0 0 0 0 0 
0 0 0 3.87695e-09 0 0 0 0 0 
0 0 0 0 0 0 0 0 0 
8.91302e-10 0 0 0 1.63379e-09 0 0 0 0 
0 0 0 0 0 0 0 0 0 
0 0 0 0 0 0 0 0 0 
0 0 0 0 0 0 0 0 0 
0 0 0 0 0 0 0 0 0 
0 0 0 0 0 0 0 0 0 
0 0 0 2.26324e-09 0 0 0 0 0 
0 0 0 0 0 0 0 0 0 
0 0 0 0 0 0 0 0 0 
0 0 0 0 0 0 0 0 0 
0 0 0 0 0 0 0 0 0 
0 0 0 0 0 0 0 0 0 
0 0 0 0 0 0 0 0 0 
0 0 0 0 0 0 0 0 0 
0 0 0 0 0 0 0 0 0 
0 0 0 0 0 0 0 0 0 
0 0 0 0 0 0 0 0 0 
0 0 0 0 0 0 1.4351e-09 0 0 
0 0 0 0 0 0 0 0 0 
0 0 0 0 0 0 1.65121e-09 0 1.44978e-09 
0 0 0 0 0 0 0 0 0 
0 0 0 0 0 0 0 0 0 
0 0 0 0 0 0 0 0 0 
0 0 0 0 0 0 0 0 0 
0 0 0 0 0 0 0 0 0 
0 0 0 0 0 0 0 1.64355e-09 1.43329e-09 
0 0 0 0 0 0 0 0 0 
0 0 0 0 0 0 0 0 0 
0 0 0 0 0 0 0 0 0 
0 0 0 0 0 0 0 0 0 
0 0 0 0 0 0 0 0 0 
0 0 0 3.88771e-09 0 0 0 0 0 
0 0 0 0 0 0 0 0 0 
0 0 0 0 0 0 0 0 0 
0 0 0 0 0 0 0 0 0 
0 0 0 0 0 0 0 0 0 
0 0 0 0 0 0 0 0 0 
0 0 0 0 0 0 0 0 0 
0 0 0 0 0 0 0 0 0 
0 0 0 0 0 0 0 0 0 
0 0 0 0 0 8.79262e-10 0 0 0 
0 0 0 0 0 0 0 0 0 
0 0 0 0 0 0 0 0 0 
0 0 0 0 2.27815e-09 0 0 0 0 
0 0 0 0 0 0 0 0 0 
0 0 0 0 0 0 0 0 0 
0 0 0 0 0 0 1.57634e-09 0 0 
0 0 0 0 0 0 0 0 0 
0 0 0 0 0 0 0 0 0 
0 0 0 0 0 0 0 0 0 
0 0 0 0 0 0 1.08156e-09 0 0 
0 0 0 0 0 0 0 0 0 
0 0 0 0 0 0 0 0 0 
0 0 0 0 0 0 0 0 0 
0 0 0 0 0 0 0 0 0 
0 0 0 0 0 0 0 0 0 
0 0 0 0 0 0 0 0 0 
0 0 0 0 1.43997e-09 0 0 0 0 
0 0 0 0 0 0 0 0 0 
4.3771e-10 3.23961e-09 0 0 0 0 0 0 0 
0 0 0 0 0 0 0 0 0 
0 0 0 0 1.85306e-09 0 0 0 6.20619e-09 
0 0 0 0 0 0 0 0 0 
0 0 0 0 0 0 0 0 0 
0 0 0 0 0 0 0 0 0 
0 0 0 0 0 0 0 0 0 
0 0 0 0 0 0 0 0 0 
0 0 0 0 0 0 0 0 0 
0 0 0 0 0 0 2.31082e-09 0 0 
0 0 0 0 0 0 0 0 0 
0 0 1.43279e-09 0 0 0 0 0 0 
0 0 0 0 0 0 0 0 0 
0 0 0 0 0 0 0 0 0 
0 0 0 1.43369e-09 0 0 0 0 0 
0 0 0 0 0 0 0 0 0 
0 0 0 1.51734e-09 0 0 0 0 0 
0 0 0 0 0 0 0 0 0 
0 0 0 0 0 0 0 0 0 
0 0 0 0 0 0 0 0 0 
0 0 0 0 0 0 0 0 0 
0 0 0 0 0 0 0 0 0 
0 0 0 0 0 0 0 0 0 
0 0 0 0 0 0 0 0 0 
0 0 0 0 0 0 0 0 0 
0 0 0 0 0 0 0 0 0 
0 0 0 0 0 0 0 0 0 
0 0 0 0 0 0 0 0 0 
1.43328e-09 0 0 0 0 0 0 0 0 
0 0 0 0 0 0 0 0 0 
0 0 0 0 0 0 0 0 0 
1.43319e-09 0 0 0 0 0 0 0 0 
0 0 0 0 0 0 0 0 0 
0 0 0 0 0 0 0 0 0 
0 0 0 0 0 0 0 0 0 
0 0 0 0 0 2.14083e-09 0 0 0 
0 0 0 0 0 0 0 0 0 
0 0 0 0 0 0 0 0 0 
0 0 0 0 0 0 0 0 0 
0 0 0 0 0 0 0 0 0 
0 0 0 0 0 0 0 0 0 
0 0 0 0 0 0 0 0 0 
0 0 0 0 0 0 0 0 0 
0 0 0 0 0 0 0 0 0 
0 0 0 0 0 0 0 0 1.94203e-09 
0 0 0 0 0 0 0 0 0 
0 0 0 0 0 0 0 0 0 
1.46238e-09 0 0 0 0 0 0 0 0 
0 0 0 0 0 1.43279e-09 0 0 0 
0 0 0 0 0 0 4.48305e-09 0 0 
0 0 0 0 0 0 0 0 0 