# vtk DataFile Version 5.1
vtk output
ASCII
DATASET STRUCTURED_POINTS
DIMENSIONS 100 100 1
SPACING 1 1 1
ORIGIN 0 0 0
POINT_DATA 10000
FIELD FieldData 6
feature_1 1 10000 float
0 0 0 0 1.56691e-12 3.88507e-13 5.07539e-13 0 0 
5.76827e-13 0 0 0 0 0 1.22168e-12 1.87091e-13 0 
0 0 0 2.30833e-13 3.9216e-13 0 5.88946e-13 0 0 
1.24692e-13 2.71198e-13 0 1.46138e-13 2.55177e-13 0 0 0 0 
0 0 1.17016e-12 0 0 0 0 0 0 
0 7.25483e-13 0 1.29419e-13 0 0 0 0 0 
0 0 0 1.93307e-12 0 0 4.38475e-13 0 4.40235e-13 
2.02597e-13 0 0 0 1.7305e-13 8.48783e-13 0 1.12377e-12 7.94594e-13 
5.14132e-13 7.42837e-13 0 0 0 1.37905e-12 0 9.47597e-14 3.70194e-13 
4.42126e-13 0 0 0 0 0 2.54092e-13 0 3.76499e-13 
0 0 1.61256e-12 0 0 0 0 0 0 
0 4.62592e-14 8.76832e-13 0 0 4.04268e-13 0 0 5.97552e-13 
0 6.4031e-13 0 1.00031e-13 0 0 0 0 1.20977e-12 
0 0 0 0 3.98863e-13 1.76858e-12 0 7.05297e-14 0 
0 0 9.00527e-13 5.41652e-14 0 0 2.55748e-13 1.6238e-13 0 
2.37041e-13 0 6.33264e-13 0 1.91579e-14 5.17757e-13 0 0 0 
4.72455e-13 0 0 1.60595e-12 0 3.95626e-13 0 0 3.85423e-13 
0 0 0 2.45678e-13 3.66401e-13 9.67064e-13 5.71161e-13 2.20393e-13 0 
5.0592e-14 3.70734e-13 0 0 0 1.62247e-13 0 0 0 
0 0 0 0 0 0 5.8753e-13 0 1.37004e-12 
0 6.96662e-13 1.01831e-14 0 1.06918e-12 0 0 0 0 
0 0 6.71769e-13 6.03931e-13 0 0 0 0 0 
0 0 6.87611e-13 6.47277e-13 0 1.16963e-12 0 1.21629e-12 0 
5.49801e-13 0 2.85625e-13 0 0 5.31478e-13 0 0 0 
0 0 0 0 1.6077e-12 0 0 0 0 
4.50869e-13 0 0 3.17222e-13 0 5.38484e-13 0 0 0 
1.67592e-13 0 0 2.92418e-13 0 0 0 9.49685e-13 9.78444e-13 
2.03037e-13 0 0 0 0 0 0 0 0 
0 0 0 0 0 0 7.95667e-13 0 0 
7.89082e-13 0 6.38797e-13 3.08941e-13 3.01507e-13 0 0 4.49707e-13 0 
0 0 0 6.51646e-13 3.21611e-13 0 6.0105e-13 8.50948e-13 3.81612e-13 
0 8.42281e-13 6.02605e-13 0 1.37893e-12 0 8.28403e-13 4.48988e-13 0 
0 1.74665e-12 0 6.35883e-14 0 4.0529e-13 0 0 0 
8.28346e-13 1.64543e-13 1.82711e-12 0 0 6.61277e-13 0 1.26934e-12 0 
0 0 3.66819e-13 0 9.45858e-14 1.70166e-12 0 0 0 
6.25675e-13 0 0 4.88043e-13 0 0 0 0 0 
0 0 0 0 0 0 8.60801e-13 1.06464e-12 0 
5.97525e-13 0 0 0 0 6.95155e-13 0 0 3.85973e-13 
0 7.75018e-13 1.01398e-12 5.58612e-13 0 0 0 4.8e-13 7.04218e-13 
3.75067e-13 3.93747e-13 0 0 0 1.20446e-12 0 0 0 
0 0 0 0 3.52172e-13 0 0 4.01256e-13 6.95057e-13 
0 0 9.38161e-13 0 0 1.35285e-12 0 0 0 
0 0 0 1.72744e-12 1.30804e-12 0 0 1.00856e-12 0 
0 0 0 0 0 0 0 3.65456e-13 0 
3.33912e-13 1.45959e-13 0 0 0 1.87264e-13 1.36931e-12 1.88429e-13 0 
0 0 1.05627e-12 0 0 0 4.88493e-13 2.79531e-13 6.39866e-13 
0 0 4.6569e-14 0 8.33601e-14 0 0 0 0 
1.0648e-12 0 2.30148e-13 0 0 0 7.2084e-13 4.69431e-13 1.17459e-12 
5.48741e-13 0 0 0 0 3.60215e-13 0 3.9345e-13 0 
0 0 0 0 0 0 0 4.76712e-12 0 
0 0 2.63186e-13 1.54499e-12 0 0 1.36072e-12 0 4.49847e-12 
0 1.6885e-13 0 0 0 4.38842e-13 0 0 0 
0 5.66545e-14 0 5.8447e-14 0 0 1.39835e-13 0 0 
0 0 3.1152e-13 9.18315e-13 0 0 0 1.63668e-12 0 
0 9.54834e-13 0 1.39386e-12 1.22532e-12 0 0 0 0 
0 0 1.66719e-13 0 0 0 4.03615e-13 9.6882e-13 0 
0 0 7.97082e-13 0 0 1.51853e-13 3.29658e-13 0 2.71411e-13 
0 0 0 1.19811e-12 0 0 0 0 0 
0 0 0 0 0 0 0 4.03993e-13 6.03693e-14 
0 0 1.59675e-12 0 0 0 1.29607e-12 0 0 
7.12426e-13 2.56306e-13 0 0 0 0 0 6.41623e-13 0 
1.61664e-14 0 0 0 0 0 1.03276e-12 7.1679e-13 0 
1.915e-13 0 6.85588e-13 0 5.16947e-12 0 0 0 7.9695e-13 
1.81566e-13 5.55998e-13 0 0 0 8.10624e-13 6.60443e-13 0 2.39745e-12 
0 0 0 0 2.11348e-13 0 0 2.11922e-13 0 
1.00141e-12 0 0 0 0 9.89288e-13 7.92499e-13 0 1.428e-12 
0 2.09518e-13 0 0 1.07845e-12 0 0 0 0 
0 0 1.83538e-13 0 0 0 0 0 0 
0 6.95368e-13 8.18537e-13 1.93081e-14 0 1.79582e-13 6.63817e-13 0 0 
0 0 6.89694e-13 7.24539e-13 5.67995e-12 0 0 5.02681e-13 5.48457e-13 
0 8.19921e-13 0 0 1.4528e-12 2.80244e-13 0 6.98623e-13 8.50123e-13 
2.79691e-13 3.01363e-12 0 0 0 1.96183e-11 7.91541e-13 0 0 
1.5834e-11 0 0 0 0 1.09306e-12 0 2.85601e-13 5.47904e-13 
0 0 0 3.43326e-11 1.36112e-13 0 0 0 0 
0 0 7.70842e-13 0 0 0 5.26597e-13 0 0 
0 0 2.43348e-12 0 0 0 8.63585e-13 0 8.67642e-13 
0 1.73435e-14 0 0 5.05105e-14 0 0 7.10263e-13 0 
5.14281e-13 3.83572e-13 0 2.52145e-13 0 0 0 9.62372e-13 8.56914e-13 
0 7.23847e-13 0 2.62374e-13 4.09571e-13 0 0 0 0 
0 0 0 0 0 0 0 0 0 
1.09146e-12 0 0 6.1974e-12 8.84945e-13 0 8.715e-12 3.90284e-12 0 
0 4.78716e-12 0 0 1.04812e-12 0 0 0 3.61218e-12 
0 8.54788e-15 0 7.05806e-12 0 0 0 8.83825e-12 1.11128e-12 
0 1.25943e-12 9.50388e-14 0 0 0 0 2.21677e-13 0 
9.60547e-12 6.68109e-12 0 0 1.36941e-11 0 4.04691e-14 0 0 
0 0 0 0 0 0 5.61124e-13 0 0 
3.05952e-13 1.85282e-11 0 0 6.3323e-13 0 7.98897e-13 0 0 
1.39603e-12 0 1.76767e-13 4.85349e-13 0 0 1.06694e-12 0 0 
3.88714e-13 3.36607e-13 1.29576e-12 0 0 5.32448e-13 1.22545e-12 0 6.60629e-13 
7.66943e-13 0 7.53266e-13 0 0 7.80178e-15 0 0 0 
0 0 0 0 0 2.78505e-13 0 0 1.83713e-13 
3.29394e-13 0 0 0 0 2.09018e-11 0 0 1.12727e-12 
0 0 0 0 0 0 1.46944e-11 0 0 
6.70876e-13 0 0 1.91506e-14 8.22147e-11 0 4.35499e-10 3.66368e-10 2.70396e-10 
0 0 0 7.28946e-12 0 0 0 5.41519e-13 7.2289e-13 
1.43998e-13 3.32809e-11 6.01932e-13 4.25892e-12 2.28585e-11 3.75161e-12 2.44179e-12 0 2.33818e-11 
0 4.23022e-13 0 0 0 0 0 0 0 
0 0 0 6.86789e-13 0 0 0 0 0 
0 0 0 1.6576e-13 0 2.67321e-13 0 0 0 
0 0 0 0 0 3.90618e-13 0 0 2.65597e-13 
0 0 1.0675e-12 0 5.23171e-13 2.24059e-13 0 2.58589e-14 1.5763e-12 
2.84066e-13 0 0 1.32882e-13 0 0 0 8.31959e-13 7.18981e-13 
0 0 0 5.03458e-12 2.10696e-13 0 9.09414e-13 0 0 
0 0 0 7.1876e-13 1.10489e-12 1.60935e-13 0 0 0 
0 0 0 0 0 1.47369e-12 0 7.43883e-10 1.19357e-10 
2.7997e-13 1.104e-09 5.68793e-14 3.63859e-10 0 0 5.36765e-11 4.18864e-13 0 
0 0 3.01661e-12 0 1.00058e-10 0 8.97513e-10 0 0 
0 0 0 7.09761e-13 9.1911e-13 0 5.81583e-14 4.89391e-13 0 
8.31548e-12 0 5.44828e-12 0 2.66773e-11 0 0 1.38257e-12 2.27386e-11 
0 0 0 0 6.77933e-13 0 0 0 4.61808e-14 
5.78636e-13 0 2.91093e-13 0 4.42204e-13 3.9494e-13 0 1.15325e-12 2.56557e-13 
0 4.74811e-13 0 0 0 0 0 0 7.41377e-13 
0 0 0 0 0 1.55862e-13 0 1.09516e-12 0 
0 0 9.78967e-13 0 0 0 0 0 0 
1.80652e-10 3.11747e-11 1.65327e-10 0 0 0 0 0 2.06228e-13 
4.33105e-13 0 0 4.12565e-13 9.45103e-14 0 0 4.30851e-13 0 
1.49298e-12 0 0 7.82854e-13 0 0 0 4.456e-11 0 
2.7432e-13 3.19271e-12 0 1.92766e-10 0 4.7603e-13 0 0 0 
0 0 1.07414e-12 2.8227e-13 0 0 6.15368e-13 0 0 
0 0 0 1.55965e-13 0 5.74016e-10 0 0 6.10067e-13 
3.98871e-11 3.70452e-13 0 0 0 1.47169e-12 0 6.08687e-13 3.38095e-13 
0 0 8.80915e-13 0 0 0 0 8.14856e-13 0 
1.05737e-12 0 0 0 0 3.03944e-14 9.1699e-13 0 0 
0 7.27881e-13 0 1.03618e-12 0 0 3.22589e-13 7.03731e-13 0 
0 9.36639e-14 3.54654e-13 0 0 1.93573e-11 3.13002e-13 0 0 
0 7.84288e-13 2.21102e-10 6.18126e-10 4.28299e-10 0 0 0 0 
0 0 1.87366e-10 0 0 9.17918e-12 0 0 0 
3.80843e-13 0 0 8.12086e-13 8.78041e-13 3.26751e-10 0 2.19854e-10 3.43779e-11 
0 0 0 0 0 4.1703e-10 0 1.38472e-12 0 
3.91272e-14 0 4.59905e-10 3.41e-11 0 1.5838e-12 4.0314e-11 3.06298e-11 1.0936e-11 
0 0 0 9.3182e-11 0 5.24723e-10 0 0 0 
0 0 0 0 0 5.1599e-13 2.54521e-13 1.06825e-12 0 
0 9.00573e-13 0 0 3.58517e-13 0 2.61865e-13 0 7.76058e-13 
0 0 0 0 9.62708e-13 2.67759e-13 0 0 0 
0 1.19811e-13 0 0 4.81203e-13 0 7.62318e-14 0 1.99753e-13 
1.94292e-13 8.52345e-14 0 0 2.03826e-13 0 0 0 0 
0 0 3.88328e-13 0 0 0 0 0 0 
7.22643e-11 0 7.50709e-13 0 0 0 2.59085e-11 2.94691e-10 4.39539e-13 
0 0 5.74065e-13 8.48207e-07 7.45894e-09 2.33736e-09 0 0 0 
0 0 8.90317e-13 1.02226e-12 0 5.83713e-13 0 1.40623e-09 6.82946e-07 
1.55228e-09 0 2.93295e-13 0 0 1.28497e-12 0 9.51598e-11 2.69278e-13 
4.75038e-13 0 0 0 0 0 0 6.18732e-10 2.99554e-10 
8.9455e-11 0 6.08998e-13 4.07779e-11 0 0 0 0 9.36167e-13 
5.67191e-13 0 1.16916e-12 0 0 0 9.66148e-13 0 0 
0 3.99249e-13 0 5.05412e-13 0 0 6.68555e-13 0 8.12989e-13 
5.16904e-14 0 0 0 0 0 6.22114e-13 0 0 
2.35029e-13 0 0 0 0 0 2.29106e-13 7.30321e-13 0 
1.41053e-11 0 0 0 0 0 0 0 0 
0 0 1.71848e-10 0 0 0 0 0 0 
3.4816e-09 0 0 8.94518e-07 4.99211e-13 0 0 0 0 
0 0 3.53026e-13 0 0 6.65083e-10 0 7.25353e-13 5.4554e-13 
2.53891e-13 4.96118e-13 2.02589e-09 1.27047e-09 0 0 1.11743e-10 5.90436e-10 3.49871e-13 
0 0 0 0 0 0 0 0 0 
0 0 4.56957e-13 1.08196e-11 1.75691e-10 0 0 1.7038e-13 0 
5.40542e-13 1.30292e-13 0 0 0 0 0 1.49004e-13 0 
0 2.37746e-13 1.20799e-13 0 0 0 0 7.72736e-13 0 
0 0 6.91116e-13 0 0 0 0 1.1093e-12 0 
0 0 0 0 9.05599e-13 0 0 0 0 
2.20057e-10 0 7.08721e-13 1.79319e-13 4.86434e-09 6.85244e-07 8.65433e-13 1.53487e-09 0 
1.36663e-10 0 0 0 6.52996e-13 0 0 0 0 
0 9.88593e-13 1.8646e-10 0 1.15498e-13 1.85651e-13 0 0 1.4729e-09 
8.2278e-13 1.27479e-13 0 0 9.43396e-13 1.93769e-10 0 1.13344e-12 7.36933e-10 
0 4.39195e-13 0 1.36367e-10 0 3.52964e-11 0 0 6.75607e-13 
5.52831e-13 8.20747e-14 3.51012e-10 0 1.03638e-09 6.11124e-13 0 0 4.3732e-13 
6.84575e-07 0 4.46685e-13 9.32512e-10 4.21822e-10 0 0 0 0 
0 0 0 4.56691e-12 2.81667e-13 3.72854e-13 0 0 1.92163e-13 
0 0 8.68152e-13 0 0 0 0 0 0 
0 0 0 1.88113e-13 1.1005e-12 0 0 9.75999e-15 0 
0 3.26972e-14 5.2689e-13 0 0 4.77109e-13 4.41734e-12 0 1.03368e-10 
0 0 2.68181e-12 0 8.63749e-13 2.44333e-13 1.46659e-12 0 0 
0 0 0 0 1.23273e-09 4.21682e-09 6.84928e-07 0 3.00257e-09 
0 0 0 0 0 0 8.55741e-07 2.14183e-13 0 
7.65223e-10 1.17703e-12 0 0 0 0 1.78541e-12 0 0 
5.23725e-12 0 1.48204e-09 0 4.21466e-13 2.70352e-13 0 0 0 
0 2.23895e-10 0 0 0 0 0 8.49072e-13 0 
0 1.01321e-12 0 0 5.22201e-10 0 0 1.9058e-12 0 
6.98736e-13 0 0 0 0 1.25792e-12 0 0 2.47866e-13 
0 0 0 0 0 6.39873e-13 2.24295e-13 0 0 
0 0 0 0 6.30001e-13 4.71298e-13 1.0128e-12 1.13598e-12 3.53341e-13 
0 0 0 0 1.1358e-12 0 0 0 0 
0 0 1.47627e-11 0 1.12378e-12 0 0 0 0 
0 0 4.13943e-10 5.53457e-10 0 0 2.52303e-09 7.44035e-13 0 
2.44245e-12 2.3409e-09 8.86617e-10 0 3.46314e-13 7.92588e-07 1.34214e-08 3.55471e-13 0 
1.31526e-13 0 7.33659e-07 3.88534e-13 0 1.36822e-09 2.06357e-13 0 1.59984e-10 
0 0 0 0 0 2.22604e-13 0 4.06816e-13 2.07461e-09 
0 0 0 7.79661e-10 6.76736e-13 8.32471e-13 1.68685e-12 5.67392e-13 6.02465e-13 
0 0 0 0 4.79595e-11 5.15705e-13 0 0 1.33765e-11 
0 1.1057e-13 0 0 0 0 0 0 0 
0 3.22133e-12 4.22014e-13 7.10175e-13 9.33858e-14 0 0 3.443e-13 9.00781e-13 
0 0 0 0 0 0 3.52232e-13 0 1.01477e-12 
3.61619e-13 0 0 8.58831e-13 1.60227e-12 0 0 0 0 
0 0 1.25116e-10 0 0 5.96533e-10 1.29576e-09 5.76755e-09 0 
1.8716e-09 1.13253e-13 0 0 0 0 7.06043e-13 7.30795e-13 2.49797e-09 
0 0 0 5.24782e-14 1.25443e-09 2.09767e-09 1.44494e-12 0 2.22762e-09 
0 1.06877e-12 0 4.20019e-13 8.66759e-13 0 1.28661e-09 0 2.54062e-10 
3.27585e-11 0 8.83103e-11 0 0 0 0 7.66138e-07 0 
7.65963e-07 8.24672e-09 0 3.59637e-13 0 5.83215e-14 4.0143e-13 0 7.07868e-07 
0 0 0 0 1.58128e-10 0 1.862e-13 0 2.10235e-13 
2.12505e-11 0 8.99047e-11 0 4.96674e-13 1.30191e-10 8.9567e-14 5.03316e-13 0 
1.57609e-11 0 1.09827e-13 0 4.11828e-13 0 0 0 0 
0 0 0 0 0 0 0 3.16681e-13 0 
1.20251e-13 0 0 0 0 0 0 1.85098e-13 0 
2.29252e-13 0 0 1.17912e-13 7.162e-13 4.03387e-09 0 0 0 
2.59533e-13 0 2.74303e-13 0 0 3.25906e-10 3.38532e-10 3.24611e-13 0 
1.1281e-10 0 5.79475e-13 5.15899e-09 0 3.35636e-10 5.66383e-10 0 1.0555e-12 
0 0 0 0 0 0 1.93479e-09 4.64145e-13 0 
0 0 0 6.91563e-13 5.59658e-12 1.39196e-09 0 0 0 
0 0 0 0 0 0 0 7.71531e-10 0 
3.17378e-13 0 2.18309e-09 0 0 0 9.37816e-12 2.03922e-11 0 
0 0 0 0 0 0 1.64705e-10 0 3.78522e-13 
0 5.5984e-12 0 0 1.03386e-12 0 0 6.29246e-13 0 
5.79333e-13 0 4.22584e-13 0 0 0 0 0 6.38559e-13 
0 1.5646e-12 0 0 0 0 0 0 1.58752e-12 
9.36575e-13 4.96176e-11 8.34684e-10 0 1.79525e-13 0 4.80894e-13 2.27482e-09 1.69165e-09 
3.29978e-09 6.88207e-07 0 0 0 0 0 0 0 
0 0 3.54502e-13 3.08335e-13 6.89414e-07 0 8.01335e-13 0 0 
0 0 9.82065e-07 5.25016e-13 0 7.67853e-07 9.18011e-14 4.73504e-14 0 
0 6.32395e-13 0 0 0 0 0 0 9.32736e-13 
0 1.99224e-09 0 4.10966e-10 0 0 0 0 1.23547e-12 
2.20657e-09 7.16256e-13 9.56746e-10 1.40035e-09 1.10511e-09 0 3.0721e-10 5.20029e-10 0 
0 2.01303e-13 1.52811e-10 9.56661e-11 2.24202e-10 0 0 0 0 
0 0 0 0 0 0 9.52694e-13 0 8.14424e-13 
0 0 3.56002e-13 0 0 0 0 0 0 
6.58812e-13 0 1.58796e-11 1.19221e-12 0 8.32591e-12 0 0 0 
1.90484e-13 0 0 0 2.17024e-09 4.92201e-09 6.85151e-07 0 7.65577e-13 
1.32743e-13 3.03925e-09 3.83402e-09 0 7.79294e-13 1.37014e-11 0 0 0 
0 6.71514e-12 0 0 0 0 0 0 1.93164e-09 
0 0 7.74085e-13 0 0 6.90447e-13 1.8674e-09 6.4742e-13 1.17489e-09 
4.33311e-11 0 1.08839e-09 0 2.74205e-13 2.36435e-10 3.76864e-13 1.00775e-13 0 
1.32789e-12 7.37582e-10 4.56051e-10 0 0 0 8.80094e-10 0 0 
0 7.09472e-07 0 1.38391e-12 0 0 0 0 0 
0 1.98116e-10 0 0 5.6995e-13 6.24296e-13 0 0 8.47147e-13 
0 6.73002e-13 0 0 0 0 0 6.66671e-14 5.99628e-13 
0 0 6.99158e-13 6.0298e-13 0 0 4.45262e-13 1.10509e-12 0 
3.83714e-13 0 0 0 0 0 1.61166e-11 9.12334e-13 0 
0 1.24661e-13 3.28179e-13 0 0 0 5.73636e-13 0 5.71967e-09 
2.40941e-09 5.75406e-13 1.36777e-09 0 1.52564e-09 0 6.46565e-14 8.23391e-13 0 
8.33091e-11 8.77976e-10 1.71595e-11 0 0 3.05192e-13 5.71955e-13 1.13375e-13 0 
0 3.59507e-13 8.01772e-14 0 0 8.32947e-13 5.81568e-13 3.98593e-09 0 
1.44358e-09 0 0 0 0 3.0485e-10 7.67328e-13 2.53806e-11 2.28337e-12 
0 0 0 0 0 1.47287e-09 0 0 0 
8.66353e-14 0 0 0 8.96149e-10 0 2.12576e-13 0 1.60824e-09 
0 0 1.65572e-11 0 0 0 0 5.07818e-09 0 
1.23038e-12 0 0 3.96904e-13 7.42432e-13 5.44366e-13 8.81491e-13 0 2.21512e-12 
6.59826e-13 1.05627e-12 2.07274e-13 1.45968e-13 0 0 0 0 1.30895e-12 
0 0 0 0 0 0 0 0 3.13575e-13 
0 1.22355e-10 6.30619e-13 0 0 0 0 0 6.71197e-13 
0 0 2.7529e-13 0 1.06236e-09 0 0 5.01825e-13 0 
0 2.94545e-12 0 0 0 2.07258e-13 1.11567e-09 8.79715e-10 7.43699e-13 
0 2.95321e-10 0 6.12299e-13 6.09689e-13 0 0 9.32063e-14 5.3848e-10 
0 4.89943e-10 1.61959e-09 0 3.37089e-10 0 0 2.4976e-10 0 
0 0 3.35095e-10 3.26854e-13 0 1.15661e-12 0 5.07381e-09 3.54105e-13 
0 1.3636e-10 3.17789e-13 0 0 1.86487e-09 0 0 0 
4.07661e-13 0 2.73347e-10 3.18989e-13 3.0004e-10 0 0 2.43958e-10 6.3133e-13 
7.65845e-07 0 1.86958e-09 1.78781e-09 3.55069e-13 3.52268e-13 2.75285e-13 0 0 
1.41137e-12 0 0 0 0 0 0 0 0 
0 5.53198e-12 0 0 1.80504e-13 0 0 3.77457e-10 0 
0 0 4.37554e-12 3.16735e-12 0 0 1.55172e-09 1.1529e-12 6.64288e-13 
0 7.13476e-10 0 5.16074e-10 0 0 0 1.8562e-09 3.81079e-10 
6.74601e-13 1.15035e-12 0 0 0 8.90724e-10 8.45047e-10 0 0 
6.25894e-10 0 0 3.49999e-11 1.87755e-09 0 0 9.38419e-07 0 
3.96938e-13 5.62259e-13 0 0 1.93766e-13 0 6.22042e-10 0 0 
0 8.70829e-11 2.36006e-12 0 1.56372e-10 8.63389e-11 6.03396e-13 1.10576e-12 6.85377e-07 
0 9.04608e-14 0 0 1.40909e-12 0 2.81657e-10 0 0 
0 6.94689e-07 8.43047e-09 2.80767e-13 0 0 1.20606e-12 1.85652e-13 2.99712e-09 
6.27961e-09 0 0 0 0 0 0 0 0 
0 0 7.16087e-14 1.73581e-13 0 9.8994e-13 0 5.04209e-14 0 
0 0 0 0 1.88432e-13 0 0 1.73683e-10 0 
0 3.62423e-13 5.15612e-11 9.65341e-13 0 1.12424e-12 3.15765e-13 0 0 
0 6.93301e-10 7.31235e-14 3.64883e-13 1.11875e-10 2.9e-10 0 2.64946e-10 8.08263e-13 
0 0 4.19419e-13 4.12916e-13 6.7561e-14 8.38353e-10 0 8.77876e-10 0 
2.39443e-13 4.06284e-13 0 8.03964e-13 1.42444e-13 1.55105e-09 0 0 3.64922e-09 
0 1.4802e-13 2.53408e-09 2.85073e-10 3.80989e-10 0 0 0 0 
0 1.02154e-12 2.05932e-10 0 2.71855e-11 0 0 3.11185e-09 0 
0 0 0 6.63811e-13 7.34738e-10 0 5.09461e-09 0 0 
3.0809e-13 2.76702e-13 1.84976e-09 0 0 9.26233e-13 0 0 0 
0 0 0 1.94042e-09 2.87592e-10 0 1.29359e-10 5.28232e-13 7.33605e-13 
0 0 0 0 4.36628e-13 0 0 8.49007e-13 6.26465e-13 
0 0 2.56386e-12 0 0 0 0 0 1.11058e-13 
2.8479e-13 0 0 0 1.44733e-09 0 1.41111e-13 1.25205e-09 0 
0 0 0 2.15099e-10 1.39074e-12 0 0 0 0 
5.36895e-13 7.68331e-13 0 1.30342e-12 1.27963e-09 0 0 0 4.7407e-13 
0 0 8.09432e-11 0 0 1.12323e-12 0 2.48363e-09 0 
4.77179e-09 3.6861e-13 0 0 0 0 7.54758e-10 2.88818e-09 1.46359e-09 
0 0 1.19355e-09 0 6.65945e-11 0 4.94878e-11 0 2.56969e-11 
7.20697e-10 1.673e-13 2.11856e-09 0 0 1.79974e-13 1.05318e-08 6.93549e-07 5.57719e-09 
0 4.12325e-13 3.87804e-14 0 1.64958e-12 5.18645e-11 3.20087e-11 8.19395e-10 0 
0 0 0 0 0 6.33835e-10 0 0 0 
7.78654e-12 0 0 0 9.94705e-13 1.01274e-12 0 6.12028e-13 0 
8.56406e-13 1.14764e-13 0 0 7.00097e-12 3.88811e-13 7.28604e-13 0 0 
5.762e-13 0 0 0 0 0 7.25046e-13 0 0 
7.66078e-07 0 0 2.42723e-10 5.66833e-13 2.33267e-10 0 0 1.51175e-11 
0 0 4.82903e-09 0 0 0 2.0835e-09 0 7.44227e-07 
0 2.8853e-09 0 2.37523e-13 1.26764e-12 0 1.97881e-13 0 0 
0 0 0 0 0 9.38489e-10 0 5.48762e-13 0 
0 0 0 5.96054e-13 0 0 3.75353e-10 0 0 
7.97488e-13 0 1.53748e-09 0 0 2.99109e-11 0 8.17268e-13 3.69837e-09 
0 2.36035e-10 3.15057e-09 0 9.19548e-13 0 1.11962e-12 0 7.74926e-10 
3.76132e-13 0 8.36462e-14 3.34107e-09 1.23666e-13 2.7688e-13 3.19929e-09 0 3.04036e-11 
0 0 8.96583e-12 4.26374e-13 1.2544e-12 3.96408e-13 1.11628e-13 1.1433e-13 0 
0 0 0 4.33029e-13 0 0 0 0 2.28024e-10 
0 0 0 6.9965e-07 9.8495e-13 0 0 0 0 
0 0 0 0 5.01948e-14 1.61036e-10 0 1.2393e-12 0 
0 8.92419e-10 0 1.46014e-09 0 4.17423e-13 0 0 0 
0 3.98558e-13 7.5187e-07 0 0 0 1.10396e-12 3.11438e-11 0 
0 0 3.43414e-09 0 3.4169e-11 8.59714e-10 3.3217e-12 1.63991e-13 6.2363e-13 
1.08618e-09 0 0 0 8.99307e-13 3.22206e-13 0 1.6885e-11 2.94706e-10 
0 1.20076e-09 1.45561e-13 0 0 3.85092e-13 0 1.02011e-13 2.75215e-13 
0 1.14545e-09 5.77486e-13 5.81019e-13 8.26793e-13 6.95596e-07 4.90267e-13 0 0 
0 4.33039e-10 2.00197e-13 0 1.66544e-13 1.15539e-09 0 1.06866e-09 3.55574e-11 
2.34575e-10 0 0 2.40358e-12 0 5.34644e-13 0 3.66597e-13 8.81103e-13 
0 2.69787e-13 0 5.57588e-13 0 1.34394e-12 4.30745e-13 0 6.15574e-13 
5.33102e-11 0 1.90322e-09 4.05463e-09 0 0 0 0 5.83471e-13 
0 0 0 2.47348e-09 1.06158e-10 0 9.37775e-10 2.49553e-13 0 
6.94856e-13 0 0 3.4324e-13 1.36506e-09 0 0 6.43319e-13 0 
2.00067e-09 8.25973e-13 6.91823e-13 0 2.44236e-13 0 2.8783e-09 6.522e-09 0 
0 6.67002e-09 7.50079e-07 0 0 0 0 0 0 
5.08746e-10 1.38685e-11 0 0 4.29827e-09 2.90247e-09 0 1.72123e-09 1.21776e-10 
3.23403e-12 1.66829e-10 0 6.12762e-13 7.85039e-13 1.07623e-12 1.71136e-09 0 0 
6.89377e-10 0 2.60014e-09 9.64451e-14 0 0 0 0 0 
6.02435e-11 5.13101e-13 0 0 8.12904e-13 7.14915e-07 8.88542e-13 4.69816e-13 0 
4.80394e-10 4.91398e-11 0 0 0 0 0 0 9.23998e-13 
0 0 0 0 0 6.06576e-13 0 0 1.64902e-12 
0 0 0 6.72727e-10 5.24651e-10 0 0 1.97487e-09 7.57871e-07 
0 0 7.93847e-07 4.86507e-09 2.72932e-09 0 0 8.59034e-13 0 
0 1.00752e-09 0 0 5.24569e-11 4.98081e-13 0 0 6.24321e-13 
2.74008e-13 1.13241e-09 1.58803e-09 1.26753e-13 9.02238e-13 0 0 0 1.84337e-13 
0 0 0 8.5568e-09 0 7.59188e-13 5.36636e-10 1.01812e-10 0 
0 4.80153e-12 8.58893e-13 0 1.2448e-09 4.92317e-13 0 5.4358e-09 3.26298e-09 
0 3.83858e-10 0 3.82042e-10 0 0 6.89442e-07 2.35579e-09 1.96775e-09 
0 1.47035e-12 0 4.08586e-09 2.76326e-09 0 6.35988e-13 8.94735e-13 5.92591e-10 
0 0 0 2.23819e-13 7.80853e-14 0 0 0 0 
0 7.2572e-15 0 0 8.41901e-13 0 2.27649e-12 4.05824e-13 0 
4.74521e-13 5.70139e-13 0 0 0 0 0 3.21511e-13 0 
5.91132e-13 0 0 0 0 2.86445e-10 2.67626e-09 2.96128e-09 0 
0 1.07869e-12 1.02337e-12 2.06598e-13 0 0 1.26504e-09 1.24072e-09 3.31755e-09 
0 7.32851e-13 0 0 2.75879e-11 9.24122e-13 2.40765e-10 0 8.1334e-11 
2.54403e-10 0 6.20787e-10 5.54482e-11 1.21295e-12 0 0 0 0 
0 0 0 7.71999e-07 0 6.08056e-13 5.69284e-13 2.15311e-11 0 
0 0 0 1.6809e-10 9.31726e-14 0 0 0 4.01186e-13 
4.65132e-13 6.60375e-13 0 0 1.64849e-09 0 0 0 3.89332e-09 
0 0 4.61512e-09 6.89616e-07 1.39464e-12 0 1.33703e-09 0 1.11601e-09 
0 6.99161e-13 0 9.49752e-14 2.38173e-09 0 0 8.91359e-13 1.47639e-12 
4.37223e-13 0 2.82285e-10 0 2.35173e-11 0 0 0 0 
7.42985e-13 0 0 6.33243e-13 0 9.08384e-13 0 1.0716e-12 0 
0 0 0 6.7559e-11 0 1.51205e-10 2.51878e-12 9.65038e-14 0 
8.14134e-13 0 0 0 1.42692e-09 2.33933e-13 0 0 0 
1.62352e-13 9.32832e-07 8.33301e-13 5.38422e-13 0 0 2.96181e-10 0 0 
9.9237e-13 0 6.42451e-10 0 3.61994e-11 7.52226e-10 4.83987e-14 7.69672e-07 1.03791e-12 
6.46874e-09 0 3.14232e-14 0 3.33947e-14 1.00614e-12 0 8.11491e-10 0 
0 7.37498e-13 1.77659e-13 0 1.83838e-09 3.24152e-09 2.07167e-09 4.59907e-09 0 
0 0 2.26712e-13 0 4.4267e-13 0 0 3.8441e-10 0 
0 0 7.97439e-14 0 5.5907e-13 0 7.22088e-13 0 0 
4.34569e-10 1.27211e-12 0 5.23583e-13 3.26414e-09 9.46633e-13 7.25253e-13 7.18476e-07 5.00354e-09 
0 3.28041e-13 0 1.29692e-10 0 9.19396e-13 0 0 0 
0 7.41085e-13 0 0 0 0 0 5.97125e-13 0 
0 0 0 0 0 0 1.15057e-12 0 4.33063e-10 
0 0 1.34433e-09 3.45049e-13 1.7774e-09 3.38496e-13 0 0 0 
4.08994e-09 0 9.48107e-07 0 0 0 6.35337e-10 0 0 
8.15184e-12 3.03789e-13 0 1.86024e-13 0 3.29363e-09 0 6.84693e-09 0 
0 1.44751e-13 3.2209e-09 0 7.25687e-13 0 3.51821e-10 0 0 
0 0 4.03359e-10 3.49246e-13 9.14996e-13 0 1.93254e-13 5.43464e-07 0 
0 0 9.54255e-13 3.64472e-13 0 1.1407e-12 0 0 0 
8.84083e-14 0 1.23565e-09 0 3.60611e-10 0 0 0 7.88844e-11 
2.84731e-10 0 5.755e-13 1.33305e-12 4.31589e-13 9.97816e-13 0 0 0 
8.53647e-13 0 0 3.94655e-10 2.17039e-13 8.83964e-13 0 6.43741e-13 0 
0 0 0 1.65641e-12 0 0 0 0 0 
0 0 0 0 0 6.86378e-13 0 1.19616e-12 0 
2.70459e-10 1.29374e-12 5.03606e-10 7.37272e-12 8.28034e-14 0 0 1.24434e-12 8.67845e-13 
2.07269e-13 6.38075e-13 0 1.62679e-14 0 6.75649e-09 7.28048e-07 4.63147e-09 1.90616e-13 
2.28754e-13 6.53712e-10 0 4.12203e-13 0 0 4.41367e-10 0 0 
0 7.94544e-13 4.58063e-13 1.37424e-10 6.86641e-13 4.97738e-13 7.8158e-13 0 2.5648e-10 
3.45982e-10 0 6.97708e-13 0 3.66575e-10 0 0 7.30748e-13 0 
0 0 0 0 7.99444e-07 0 8.62828e-07 3.59363e-13 3.81139e-13 
1.61337e-14 0 0 0 0 2.81401e-10 1.0395e-12 5.3082e-10 8.20786e-13 
0 0 0 0 0 4.0653e-09 6.95884e-07 0 0 
6.4773e-10 0 0 0 6.09026e-13 0 0 0 2.43628e-12 
0 0 0 0 1.24195e-12 5.44599e-13 0 0 0 
0 0 5.90498e-13 0 0 0 3.68874e-13 0 0 
2.48634e-12 1.16834e-14 0 0 1.23036e-10 0 0 7.62321e-11 0 
2.37589e-09 0 0 0 0 0 0 5.28061e-09 8.78949e-10 
2.33986e-13 1.9858e-09 8.66762e-13 0 5.55347e-11 3.03479e-13 0 1.41981e-13 1.10909e-12 
0 0 0 0 7.75477e-10 5.46674e-10 0 0 5.15161e-09 
0 7.80995e-13 0 0 0 0 0 0 4.58157e-10 
5.0335e-10 1.78321e-09 2.14947e-09 0 0 1.91137e-13 0 4.36284e-09 7.4524e-14 
0 0 0 0 0 0 8.40357e-10 0 0 
0 0 9.25447e-13 1.72477e-11 0 0 2.71474e-09 2.62512e-09 4.82362e-13 
2.62552e-09 0 5.48986e-11 6.87454e-10 3.27234e-11 0 1.39272e-11 3.33852e-13 0 
0 0 0 1.85717e-13 0 4.42182e-13 0 4.87531e-13 0 
1.39453e-12 0 1.21106e-13 0 0 0 0 0 0 
6.73862e-11 0 0 0 1.34024e-12 7.18747e-13 0 7.11545e-11 0 
1.54641e-10 8.90696e-13 0 0 0 0 4.76414e-13 0 4.77075e-13 
0 5.75302e-10 0 0 0 2.91181e-12 0 1.01991e-13 3.35822e-09 
0 2.98157e-13 5.20627e-13 0 4.75717e-09 1.48728e-09 7.11641e-13 0 4.07306e-09 
0 7.5509e-13 0 0 0 0 1.50948e-12 9.57161e-13 0 
0 2.87601e-09 0 0 0 0 3.58676e-10 0 0 
9.43936e-07 0 6.48067e-13 7.85314e-07 7.43439e-14 0 1.41417e-09 0 1.41329e-10 
2.3807e-10 1.1534e-14 5.37086e-12 1.78094e-11 1.1434e-12 0 0 0 1.75738e-12 
2.53102e-13 7.60206e-11 0 0 0 0 2.79499e-13 0 2.20735e-14 
0 2.70524e-12 0 4.3327e-13 0 0 0 0 2.22862e-13 
5.08711e-13 2.72575e-13 0 0 1.34883e-12 0 0 2.28848e-11 0 
1.18343e-10 0 0 3.74401e-10 0 0 8.29769e-11 9.70631e-13 4.36886e-13 
0 0 0 0 7.61662e-07 0 9.87611e-09 1.53272e-13 0 
4.70418e-09 0 0 2.69878e-09 0 6.11046e-10 0 0 1.17635e-09 
0 0 1.47202e-13 7.69509e-13 6.21508e-14 0 0 0 0 
0 8.14632e-07 7.42848e-13 0 0 6.9909e-07 0 9.11498e-10 6.14281e-10 
0 0 2.3315e-10 0 0 0 0 4.64262e-13 5.89471e-14 
8.92772e-07 0 0 0 0 0 2.32552e-10 0 0 
0 9.84582e-13 0 9.53852e-14 0 7.32968e-11 0 4.02983e-11 0 
0 5.6654e-13 1.2029e-13 3.11202e-10 0 0 0 0 7.26109e-13 
4.87165e-13 3.1281e-13 2.18497e-13 4.18252e-13 6.57198e-13 6.67324e-13 0 0 0 
0 0 0 0 0 7.50092e-13 5.60904e-13 0 0 
3.65807e-11 0 8.9465e-13 6.64009e-10 0 0 0 0 0 
1.92043e-13 1.54364e-12 1.29743e-09 0 3.55709e-13 0 0 0 5.08707e-09 
3.67174e-13 0 0 6.93474e-07 4.19988e-13 0 1.71985e-09 5.56436e-10 0 
0 1.77418e-09 4.023e-13 0 7.59048e-07 2.1589e-13 0 0 5.72849e-13 
0 9.51344e-13 1.17489e-08 0 5.74013e-13 0 4.75842e-09 8.98162e-10 1.77736e-09 
0 0 0 0 0 8.081e-10 7.80957e-10 0 5.1566e-13 
7.9111e-13 0 0 0 7.99747e-07 7.42673e-09 8.39147e-13 1.06902e-12 0 
0 1.02568e-10 4.33963e-11 2.55981e-13 0 0 2.07755e-13 0 0 
0 0 0 0 0 0 1.40961e-10 0 0 
0 9.39943e-13 0 0 0 5.98857e-13 0 0 0 
0 0 0 0 0 7.77765e-13 4.30725e-13 0 7.19369e-13 
0 3.81097e-13 4.0331e-10 4.70226e-11 0 1.95292e-12 0 0 5.75714e-13 
0 0 3.85043e-10 0 0 0 0 6.33913e-13 6.11501e-09 
0 0 0 0 4.9326e-09 1.60004e-12 1.51165e-09 2.17673e-13 6.25028e-10 
1.24779e-12 3.4865e-12 0 6.07339e-13 0 7.44036e-09 3.63478e-13 1.0957e-09 8.97943e-09 
0 9.4744e-07 7.55328e-14 8.80763e-07 2.89932e-09 4.62332e-09 0 0 4.35902e-09 
1.43472e-09 3.28897e-13 0 3.92265e-13 0 2.789e-13 0 1.05938e-12 0 
8.37388e-13 3.89883e-13 0 0 4.93703e-13 0 0 7.296e-13 0 
0 0 5.36988e-13 1.76566e-13 0 0 1.44256e-11 3.49639e-14 2.27645e-13 
4.81367e-13 1.18433e-11 0 3.32419e-13 0 0 1.90483e-10 8.60986e-14 0 
0 0 1.04038e-12 0 2.24994e-13 0 0 0 0 
0 0 3.98196e-13 1.02704e-12 0 1.01694e-12 0 1.76427e-13 0 
0 5.92593e-13 0 0 0 2.29138e-13 5.97254e-13 0 3.6984e-13 
6.70993e-10 0 0 0 0 4.81987e-10 2.25708e-09 2.41801e-09 1.15747e-08 
7.81397e-07 0 8.27671e-13 1.73188e-09 0 0 1.44173e-12 0 2.36797e-10 
4.80346e-13 0 6.78717e-13 0 6.02873e-10 0 2.92256e-13 1.02572e-08 0 
0 9.23805e-07 3.74636e-13 1.0773e-12 0 0 0 0 0 
7.82827e-13 0 1.307e-12 4.69003e-13 0 7.08351e-07 3.98351e-13 3.73521e-09 0 
0 2.0141e-09 3.90797e-13 0 0 4.0952e-10 0 4.35788e-10 4.28181e-13 
0 0 2.41699e-13 0 0 0 1.01167e-12 0 6.76577e-14 
0 0 6.81179e-10 1.03411e-10 9.0008e-14 1.58855e-12 5.56782e-13 8.66666e-10 1.88764e-13 
0 6.26365e-13 0 0 0 4.74681e-13 4.57792e-13 0 0 
0 0 0 1.82408e-13 0 0 7.32907e-13 0 8.74253e-13 
0 0 3.34423e-13 8.41041e-13 0 0 0 6.82098e-07 0 
0 0 0 2.88344e-11 0 0 0 1.29296e-10 4.42754e-13 
6.18207e-13 0 0 2.38822e-10 2.0344e-09 0 2.47959e-09 0 4.49629e-10 
6.29889e-10 0 0 7.52542e-10 0 0 6.97811e-11 4.9992e-13 0 
0 0 0 0 0 1.07174e-09 1.1899e-13 0 3.69862e-13 
1.18113e-10 2.18842e-11 0 1.81021e-09 1.30532e-13 0 5.53027e-09 8.98445e-13 3.95712e-09 
1.06461e-12 0 0 0 9.60439e-13 4.60939e-10 2.86138e-09 8.44968e-14 1.70035e-09 
0 4.3555e-10 0 0 0 0 0 2.36308e-10 0 
0 0 0 0 0 3.30525e-13 0 1.09871e-10 0 
0 2.69848e-13 0 0 0 1.29577e-13 5.94301e-13 0 2.83147e-13 
0 0 0 0 1.29699e-12 0 3.91294e-13 4.19215e-13 0 
0 6.33866e-13 5.15079e-11 6.43298e-13 3.44719e-10 0 2.48626e-09 2.43239e-09 2.68301e-13 
0 4.02265e-10 7.32174e-11 4.3697e-13 3.94437e-13 4.97814e-10 0 7.26091e-10 0 
1.58436e-09 0 0 0 2.28737e-13 9.14513e-13 3.85009e-13 0 0 
0 0 0 0 8.01701e-10 9.8682e-10 0 3.31585e-09 5.74888e-13 
2.04645e-13 9.44547e-14 1.16073e-12 3.60349e-13 1.16658e-12 0 0 0 0 
4.9702e-10 0 0 0 0 0 0 0 5.32975e-13 
5.02066e-09 0 3.11734e-13 9.07947e-07 0 9.03281e-07 1.01623e-08 0 0 
0 0 5.74232e-13 0 0 1.80722e-13 2.97514e-10 0 0 
5.14183e-10 1.1538e-12 0 9.66324e-13 4.00411e-09 0 0 0 0 
2.32164e-09 0 0 0 6.69954e-11 0 7.74026e-13 0 0 
0 0 0 0 7.96219e-13 2.5878e-14 0 1.10983e-12 0 
0 0 0 0 0 8.24492e-11 0 0 2.45078e-10 
0 0 0 0 0 3.31382e-09 0 9.41874e-13 0 
9.14839e-13 2.03119e-13 0 0 0 1.17117e-12 4.80115e-13 1.1638e-10 0 
0 0 8.13557e-13 4.92289e-13 0 0 0 0 1.02533e-13 
2.17882e-09 0 0 1.43997e-12 0 4.57134e-09 2.49907e-13 0 0 
0 0 0 9.89284e-13 0 5.42982e-13 3.61814e-13 0 0 
7.17931e-07 3.00213e-09 0 0 0 0 0 4.24359e-09 0 
8.58357e-10 0 0 1.18297e-12 3.98739e-13 0 0 0 3.22547e-10 
0 0 1.80476e-09 1.17736e-12 4.58134e-09 0 0 0 0 
1.98266e-09 7.28436e-13 1.46275e-13 5.22807e-10 0 2.70465e-12 1.75793e-11 2.94428e-13 0 
0 3.36398e-13 0 1.20985e-12 1.63327e-12 2.44444e-13 0 5.43306e-13 0 
2.17755e-13 0 0 4.02108e-13 0 0 0 8.37267e-13 0 
0 0 0 2.0041e-11 1.12774e-12 0 0 6.82391e-07 0 
0 1.15571e-09 8.18122e-13 6.2052e-14 8.4383e-12 4.45853e-10 0 3.97492e-10 7.92256e-13 
0 0 0 0 0 0 0 1.04689e-12 0 
0 0 0 1.36111e-13 9.72778e-07 0 0 0 0 
0 0 0 6.73968e-13 1.17861e-12 0 1.28965e-10 0 0 
3.10377e-09 0 0 4.90008e-13 0 1.83877e-09 0 1.08315e-13 1.98643e-09 
0 0 0 0 0 4.96842e-10 4.06454e-11 2.37258e-11 0 
0 1.82679e-10 0 6.92693e-13 0 1.34948e-08 7.4502e-07 2.58925e-13 0 
3.44573e-13 0 5.07681e-10 0 3.89104e-11 0 0 0 2.96867e-11 
8.7782e-12 3.71921e-12 5.11054e-13 6.11386e-13 5.29639e-13 0 1.22635e-12 5.56816e-13 0 
0 5.99957e-13 0 4.69235e-14 0 0 1.81358e-13 0 0 
0 0 4.33163e-13 0 0 4.13831e-10 3.29516e-10 1.0247e-09 2.14213e-09 
7.54735e-13 0 1.12068e-10 0 2.31682e-13 1.72354e-10 0 0 0 
6.0764e-10 0 0 0 2.92904e-09 1.49881e-13 1.07895e-12 0 0 
0 0 0 9.43696e-14 1.59364e-13 1.23978e-08 0 0 0 
1.48243e-12 0 2.04047e-13 0 1.33863e-10 0 1.6009e-12 3.46104e-10 1.0344e-09 
5.5835e-13 0 0 1.49439e-10 6.12318e-13 3.06565e-13 0 0 0 
3.65027e-13 0 0 0 6.78846e-13 0 5.09184e-13 2.78333e-10 9.41754e-13 
0 0 0 0 1.15364e-12 0 0 0 9.15775e-13 
5.45368e-09 0 0 0 5.23466e-13 0 8.9939e-13 0 1.0154e-12 
0 0 0 9.10414e-14 0 0 7.2173e-13 0 9.10985e-14 
1.30828e-12 2.37066e-13 0 2.33249e-13 0 0 0 1.57954e-12 0 
0 3.2769e-10 4.82023e-11 5.67181e-11 6.8535e-10 3.39204e-11 1.42334e-10 0 3.1665e-13 
1.94758e-09 0 0 0 0 6.15344e-11 0 0 0 
0 0 8.44542e-13 0 2.38115e-13 2.88484e-09 5.61904e-13 8.91309e-13 0 
5.87405e-10 0 0 0 7.46e-10 0 9.45358e-13 0 0 
0 0 0 0 7.94526e-10 4.95848e-10 0 0 0 
8.15475e-11 7.35472e-13 1.34833e-10 0 0 0 1.963e-09 0 3.2562e-09 
3.06508e-09 7.93969e-13 9.23652e-13 1.57023e-13 0 0 0 0 2.09382e-10 
0 0 6.51938e-13 1.05318e-12 2.48796e-13 0 7.31268e-07 1.57477e-12 1.63884e-09 
0 0 4.34444e-09 2.7033e-09 0 9.55596e-13 0 4.01809e-10 0 
0 3.45592e-11 0 0 6.50933e-13 0 4.50363e-13 0 3.17579e-13 
0 0 0 0 0 4.79853e-13 6.99748e-12 0 0 
0 5.07637e-13 0 1.89335e-12 0 0 0 0 6.18971e-10 
0 0 0 0 0 0 8.76824e-13 0 0 
1.14207e-12 0 4.92559e-10 1.13271e-09 0 0 0 2.01807e-09 1.64316e-09 
0 3.40889e-10 0 0 2.04163e-09 9.54529e-09 7.19862e-07 0 7.08288e-13 
1.67819e-09 1.08759e-10 1.29146e-09 0 1.92173e-10 0 0 0 0 
0 2.18266e-13 4.72959e-11 4.97321e-13 0 0 0 8.68108e-10 6.40874e-10 
5.01321e-11 0 1.70856e-12 0 0 6.14107e-13 4.07351e-09 3.43523e-09 1.30916e-09 
0 0 0 6.93916e-07 0 1.82605e-09 0 1.11092e-13 0 
0 0 9.85224e-11 0 0 0 0 0 7.38434e-10 
2.06814e-10 0 0 0 0 0 0 3.12807e-14 0 
0 0 0 0 3.69446e-13 8.51073e-13 0 0 7.65597e-13 
0 0 0 1.54372e-09 0 2.01572e-09 0 2.72116e-10 1.35774e-12 
7.14759e-10 0 9.9528e-13 0 0 9.07327e-13 0 0 0 
0 0 9.40134e-13 0 1.57216e-13 1.76286e-13 6.87355e-07 5.15673e-13 0 
0 0 0 0 0 0 0 0 3.49979e-09 
0 0 8.96702e-10 0 0 0 0 4.28337e-10 0 
0 0 7.53757e-13 4.82493e-13 0 0 0 0 0 
0 6.97039e-13 1.57422e-09 0 0 2.59721e-09 5.25313e-09 6.88342e-07 0 