# vtk DataFile Version 5.1
vtk output
ASCII
DATASET STRUCTURED_POINTS
DIMENSIONS 50 50 1
SPACING 1 1 1
ORIGIN 0 0 0
POINT_DATA 2500
FIELD FieldData 6
feature_1 1 2500 float
0 0 0 0 1.12825e-09 0 0 0 0 
0 0 0 0 0 0 0 0 0 
0 0 0 0 0 0 1.20102e-09 0 0 
0 0 0 0 0 0 0 0 0 
0 0 0 0 0 0 0 0 5.81494e-10 
0 0 0 0 0 0 0 0 0 
0 0 9.82812e-10 0 1.76963e-10 0 0 0 0 
0 0 0 0 0 0 2.04484e-10 0 0 
0 0 0 0 0 0 0 0 0 
0 0 0 0 0 0 0 0 0 
4.28539e-10 0 0 8.37385e-10 0 0 0 1.03725e-09 9.50141e-10 
0 2.75818e-10 0 0 0 0 0 0 0 
0 0 0 0 0 0 0 0 0 
0 0 0 0 0 0 0 0 0 
0 1.34323e-10 0 0 0 0 0 0 0 
0 0 0 0 0 0 0 0 0 
0 6.94138e-10 0 0 0 0 0 0 0 
0 0 9.27955e-10 0 0 0 0 0 0 
0 0 0 0 0 0 0 0 0 
0 0 0 0 0 0 0 0 0 
0 0 0 0 0 0 0 0 0 
0 0 0 0 0 0 0 1.14536e-10 0 
0 0 0 0 0 0 0 0 0 
0 0 0 0 0 0 0 0 0 
0 0 0 0 2.45432e-10 0 0 6.51635e-10 5.46343e-10 
0 0 0 0 0 0 0 0 0 
0 0 0 0 0 0 0 0 0 
0 0 0 0 0 0 0 0 7.78559e-10 
0 0 0 0 0 0 0 0 0 
0 0 0 0 0 0 0 0 0 
0 0 0 0 0 0 0 0 0 
0 0 0 8.61235e-10 0 0 0 0 0 
0 0 0 0 0 0 0 0 0 
0 0 0 0 0 0 0 0 0 
0 1.02138e-09 0 0 0 0 0 0 0 
0 0 0 3.50274e-10 0 0 0 0 0 
0 0 0 0 0 0 0 0 0 
0 0 0 0 0 1.90687e-10 0 0 0 
0 0 0 0 0 0 0 0 0 
0 0 0 0 0 0 0 1.00178e-09 0 
0 0 0 3.11211e-10 0 0 0 0 2.66337e-08 
1.15041e-09 0 0 0 0 0 0 0 6.77243e-06 
5.09138e-08 0 0 0 0 0 0 0 0 
0 0 0 0 0 0 0 0 0 
0 0 0 0 0 0 0 0 0 
0 0 0 6.78056e-06 0 0 0 0 0 
0 0 0 0 6.79175e-06 0 0 0 0 
0 0 0 0 0 0 0 0 0 
0 8.22386e-10 0 0 0 0 0 0 0 
0 0 0 0 0 0 0 0 0 
0 3.06656e-10 0 0 0 0 0 0 3.33316e-10 
0 0 0 0 0 0 0 0 2.96095e-08 
0 0 0 0 0 0 0 0 0 
0 0 2.57737e-09 0 0 0 0 0 0 
0 0 0 0 0 0 0 0 0 
0 0 0 0 0 0 0 0 0 
4.97909e-10 0 0 0 0 0 0 0 0 
0 0 0 7.1869e-06 0 8.76454e-10 0 0 0 
0 0 0 0 0 0 0 0 0 
0 0 3.11876e-08 0 1.29928e-09 0 0 0 0 
6.87268e-06 0 0 0 0 7.51054e-10 0 0 0 
0 0 0 0 7.05008e-10 0 0 0 0 
0 0 7.1909e-06 0 0 7.02482e-06 0 7.35829e-06 9.74516e-10 
0 0 0 5.43476e-10 0 0 0 0 0 
0 0 0 0 0 0 8.09846e-06 8.39588e-06 0 
0 3.79849e-08 6.88845e-06 0 0 3.29958e-08 0 0 0 
0 0 0 0 0 0 0 0 0 
0 0 0 0 0 6.0983e-08 7.16876e-06 0 0 
0 0 0 0 0 0 0 0 0 
0 0 0 0 4.61498e-10 0 0 0 0 
0 1.48199e-09 0 0 7.25439e-06 0 0 3.50168e-08 0 
6.93534e-06 0 0 0 0 0 0 0 0 
0 0 0 7.19552e-10 0 0 0 0 0 
0 1.53919e-08 0 0 0 0 0 0 0 
0 0 0 0 0 0 0 0 6.80419e-06 
0 0 6.81086e-06 0 0 0 0 0 0 
0 1.12543e-09 0 0 0 0 0 0 0 
1.21958e-10 0 1.00103e-09 0 0 0 0 0 0 
0 0 0 0 0 6.10413e-10 0 0 0 
0 0 0 0 0 0 0 0 0 
0 2.87104e-10 0 0 2.22789e-08 0 0 5.35494e-08 0 
0 0 0 0 0 0 0 0 0 
0 0 0 0 0 0 0 0 0 
0 0 0 0 0 0 0 0 0 
0 0 4.2003e-10 0 0 6.9162e-06 0 2.59394e-07 7.38914e-06 
0 0 0 0 0 0 0 0 0 
0 0 0 0 0 0 0 6.87003e-06 6.58799e-08 
0 0 0 0 0 0 0 0 0 
0 0 0 0 0 0 0 0 1.54368e-09 
0 0 0 0 0 0 0 0 0 
0 4.70081e-08 0 7.64022e-06 0 0 0 0 0 
8.35644e-10 1.6647e-08 6.79944e-06 3.1584e-08 0 0 0 4.43485e-10 0 
0 0 0 0 5.74241e-08 0 0 0 0 
0 0 0 0 0 0 0 0 0 
0 0 0 0 0 0 0 0 0 
0 0 0 5.23658e-10 1.05638e-10 0 0 0 0 
7.45446e-06 0 0 7.2491e-09 0 1.49794e-09 0 0 0 
0 0 2.21524e-08 0 0 0 8.46408e-09 0 0 
0 0 0 0 6.12472e-07 0 0 0 0 
8.8145e-10 0 3.6141e-10 4.55042e-10 0 0 0 8.93721e-10 0 
6.38751e-10 0 0 1.42019e-09 0 0 0 0 0 
0 0 6.83914e-06 0 0 0 3.88786e-08 0 0 
0 1.65006e-10 0 0 0 0 0 0 6.97841e-06 
0 0 0 0 0 8.10878e-06 0 0 7.50089e-06 
0 7.56059e-06 0 0 0 0 6.73786e-10 0 0 
0 0 0 0 0 0 0 0 0 
0 0 0 0 0 0 0 0 0 
0 0 7.07928e-06 0 7.22912e-06 7.36829e-08 8.60319e-06 9.30519e-06 0 
0 0 0 4.93255e-08 0 0 0 0 0 
0 5.63429e-08 0 0 0 7.99583e-06 0 0 0 
0 0 0 0 0 0 0 0 0 
0 0 0 8.16168e-10 0 0 0 0 0 
0 0 0 0 0 0 0 0 0 
0 0 0 8.41412e-06 4.2403e-08 1.11019e-09 0 0 0 
0 0 0 0 0 0 0 0 7.41797e-06 
0 0 7.43937e-06 0 0 0 0 0 0 
0 0 0 0 0 0 0 0 0 
0 0 0 0 0 0 0 0 0 
0 0 0 0 0 0 0 0 3.11833e-08 
0 0 0 0 0 0 0 0 0 
0 7.09012e-06 0 7.53805e-06 0 0 0 2.93526e-08 0 
0 0 0 0 0 0 0 0 0 
0 0 0 0 0 0 0 0 2.52807e-08 
8.01401e-06 8.01963e-06 0 0 1.13744e-10 0 0 6.7887e-06 0 
0 0 0 0 1.98828e-08 0 0 0 0 
0 0 0 0 0 0 0 0 6.9999e-08 
0 0 0 0 0 0 0 0 0 
0 0 0 0 0 0 0 0 0 
0 0 0 0 1.64926e-08 0 0 0 0 
0 0 0 4.40945e-08 0 0 3.24108e-08 6.86368e-06 0 
0 0 0 0 0 0 7.18372e-06 0 0 
0 0 0 7.1393e-06 0 7.12189e-06 0 0 6.83542e-06 
2.7353e-08 0 0 0 8.9055e-10 0 0 0 0 
0 0 0 0 0 0 0 0 0 
0 0 2.40821e-10 0 0 0 0 0 0 
0 0 0 0 0 0 0 0 0 
0 0 0 7.20058e-06 0 0 0 0 0 
0 1.39927e-08 0 0 0 0 0 0 0 
0 0 0 0 0 0 0 0 0 
0 0 0 0 0 0 0 0 0 
0 0 0 0 0 0 0 0 0 
6.9544e-06 0 0 0 0 8.21179e-06 0 0 0 
0 0 0 0 0 0 0 1.05096e-08 0 
0 0 0 0 0 0 4.03232e-10 0 0 
0 0 0 0 0 0 0 0 0 
0 0 0 0 0 0 0 0 0 
0 0 0 0 1.19628e-09 0 0 2.19623e-08 7.53113e-06 
3.14697e-06 8.61508e-06 0 0 0 0 0 0 0 
0 6.29182e-10 0 0 0 0 0 0 0 
3.26874e-08 0 0 0 0 0 0 0 0 
0 0 0 0 0 0 0 0 0 
0 0 0 0 0 0 0 0 0 
0 0 6.97181e-06 0 0 7.64587e-06 0 0 0 
6.90792e-06 0 0 0 1.88186e-08 0 0 0 0 
0 0 0 0 6.7695e-06 3.30991e-08 0 0 0 
0 0 0 3.34182e-10 0 0 0 0 0 
0 0 0 0 0 0 0 0 6.73555e-08 
0 0 0 0 0 0 0 0 0 
0 0 0 0 0 0 0 7.05577e-06 0 
6.70357e-06 0 0 0 6.79706e-06 0 9.49974e-10 0 0 
0 0 0 0 0 0 0 0 0 
0 0 0 0 0 0 0 0 0 
6.88072e-06 0 0 0 6.87699e-06 0 0 0 0 
0 0 0 0 0 0 0 0 0 
0 0 0 2.53717e-08 0 0 0 0 0 
0 0 8.84473e-10 2.34245e-10 0 0 0 0 0 
0 0 0 0 0 0 0 0 0 
0 0 0 0 0 0 0 8.17872e-06 0 
0 0 0 3.68149e-09 0 0 0 0 0 
0 0 0 0 0 0 0 0 0 
0 0 2.91394e-08 6.81566e-06 1.35763e-08 0 0 0 0 
0 0 0 0 0 5.52305e-11 0 0 0 
0 0 0 0 0 0 0 0 0 
0 0 0 8.05724e-06 0 0 0 0 0 
0 0 0 6.7945e-06 1.28875e-09 0 0 0 0 
0 0 0 0 0 0 0 0 0 
0 0 0 0 0 0 0 0 0 
0 0 0 0 0 0 0 0 0 
0 0 0 0 0 0 0 0 0 
0 7.17332e-10 0 0 0 0 0 1.41898e-09 0 
0 0 9.52475e-10 0 0 0 0 0 0 
4.84904e-08 0 0 0 0 0 0 0 1.41581e-09 
7.23296e-06 0 0 0 0 0 0 0 0 
0 0 1.0873e-09 0 0 0 0 0 0 
0 0 0 0 0 0 0 6.78303e-06 7.03277e-10 
1.15785e-08 0 2.94115e-10 0 0 0 0 0 0 
0 0 0 0 3.16308e-08 6.78049e-06 4.33398e-08 0 0 
0 0 0 0 7.1865e-06 0 1.05372e-07 6.88706e-06 0 
0 0 0 0 0 0 0 0 0 
0 0 0 0 0 0 0 0 0 
0 0 0 0 0 0 0 4.01368e-08 6.88305e-06 
4.04108e-08 0 0 0 0 0 3.65261e-08 0 0 
0 0 0 0 0 0 0 1.8947e-10 0 
1.28836e-10 0 1.62892e-08 0 0 0 0 0 0 
0 0 0 0 0 0 0 0 0 
6.7665e-10 0 0 6.77714e-06 0 0 0 0 0 
0 0 0 0 0 0 0 0 0 
0 0 6.96495e-06 4.60954e-08 0 0 0 0 0 
0 1.48421e-09 0 0 0 0 0 0 0 
0 0 0 0 0 0 0 0 0 
0 0 0 0 0 0 0 0 0 
0 0 0 0 0 1.6826e-10 0 8.03123e-06 4.15367e-10 
0 5.11143e-10 2.97225e-10 0 8.02702e-06 8.1042e-06 0 0 0 
6.98898e-06 0 0 0 0 0 0 0 0 
0 0 0 0 0 0 0 0 0 
0 0 0 0 0 0 0 0 0 
0 0 8.75851e-10 0 0 0 4.30854e-10 0 0 
6.9776e-10 0 0 0 0 0 0 5.55325e-10 0 
0 0 0 0 3.81901e-08 0 9.58767e-10 0 0 
0 0 0 0 1.00204e-09 1.3647e-09 0 0 0 
0 0 0 0 0 0 0 0 0 
0 0 0 0 0 0 0 0 0 
0 0 1.75358e-08 0 0 0 3.39608e-10 0 0 
0 0 0 0 0 0 0 0 0 
8.4403e-06 0 8.31318e-08 7.21719e-06 0 0 0 0 0 
0 0 0 8.61419e-10 0 0 0 0 0 
0 0 0 0 0 0 0 0 0 
0 0 0 0 0 2.23502e-08 6.80311e-06 0 0 
7.00186e-06 0 0 0 0 0 0 0 0 
0 1.17637e-09 0 0 5.74222e-10 8.84675e-06 0 7.489e-06 0 
0 0 0 0 6.17757e-10 0 0 0 1.12539e-08 
2.76852e-08 0 0 0 1.49416e-08 0 0 0 0 
0 0 1.63325e-10 0 0 5.12504e-10 0 0 9.153e-10 
0 0 0 0 0 5.47201e-08 0 0 0 
0 0 0 3.16366e-10 0 0 0 6.84177e-06 0 
0 0 0 0 0 0 0 0 0 
0 8.17717e-06 0 0 0 6.91118e-06 0 0 6.88252e-06 
1.0102e-09 0 0 0 4.63388e-10 6.77463e-10 0 8.89818e-10 0 
0 0 0 0 1.38901e-09 1.10629e-09 0 0 0 
2.80726e-08 6.97878e-06 0 0 0 0 0 0 0 
0 0 0 0 0 0 0 0 0 
3.54559e-08 0 0 0 7.05586e-06 0 8.42098e-06 0 7.14819e-06 
0 0 0 0 0 0 0 0 0 
0 0 0 0 0 0 0 0 0 
0 0 0 0 0 0 0 0 0 
0 0 0 0 0 9.0057e-10 0 0 0 
0 0 0 0 0 6.79295e-06 2.35084e-08 0 0 
6.27922e-08 0 4.30518e-08 0 0 0 0 3.11302e-08 6.87198e-06 
0 0 0 0 0 0 8.58705e-10 0 0 
0 0 0 0 0 0 0 0 0 
0 0 0 0 1.11218e-10 0 0 0 0 
0 0 0 0 5.85217e-10 0 0 0 0 
0 0 0 0 0 0 0 0 0 
0 0 0 0 0 0 0 0 0 
0 0 0 0 0 0 0 0 0 
0 0 0 0 0 0 0 0 0 
0 0 0 0 0 0 0 0 0 
0 0 0 0 0 0 1.9607e-08 0 0 
0 5.10521e-10 0 0 0 0 0 0 0 
0 0 0 0 0 0 0 0 0 
0 0 0 0 0 0 0 1.1322e-09 0 
0 0 0 0 0 0 0 0 0 
0 0 0 0 0 0 0 0 0 
0 0 0 0 0 0 0 0 0 
0 0 0 0 0 7.05634e-09 0 8.26457e-10 0 
0 0 0 0 0 0 0 0 0 
0 0 0 0 0 0 0 0 0 
0 0 0 0 0 0 0 0 0 
0 0 0 0 0 0 0 0 0 
0 0 0 0 0 0 0 0 0 
0 0 0 1.03585e-09 0 0 0 0 0 
0 0 0 0 0 0 0 0 0 
0 0 0 0 0 0 0 0 0 
0 0 0 0 0 0 0 0 0 
0 0 0 0 0 0 9.81039e-10 0 1.14019e-09 
0 0 0 0 0 0 0 0 0 
0 0 0 0 0 0 0 0 0 
0 0 0 0 0 2.07535e-10 0 0 0 
0 4.19227e-10 0 0 0 0 0 2.8454e-10 0 
0 0 0 1.67237e-10 0 0 0 0 0 
0 0 0 0 0 0 0 0 0 
0 0 0 0 0 0 0 0 0 
0 0 0 0 0 0 0 0 0 
0 0 0 0 0 8.01492e-10 0 0 0 
0 0 0 0 0 0 0 0 4.10698e-10 
0 0 0 0 0 0 0 0 0 
0 0 0 0 0 0 0 0 0 
0 0 0 0 0 0 0 
feature_2 1 2500 float
0 0 0 0 0 0 0 0 0 
0 0 0 0 0 0 0 0 0 
0 0 0 0 0 0 0 0 0 
0 0 0 0 0 0 0 0 0 
0 0 0 0 0 0 0 0 0 
0 0 0 9.7449e-10 0 0 0 0 0 
0 0 0 0 0 1.10523e-09 3.93987e-10 0 0 
0 0 0 0 0 0 0 0 0 
0 0 0 0 0 0 0 0 0 
0 0 0 0 0 0 5.98977e-10 0 0 
0 0 0 1.58273e-11 0 0 0 0 0 
2.71917e-08 0 0 0 0 0 0 0 0 
0 0 0 0 0 0 0 0 0 
0 0 0 0 0 0 0 0 0 
0 0 0 0 0 0 0 0 0 
7.09708e-10 0 0 0 0 0 0 0 0 
0 0 0 0 0 0 0 0 0 
0 0 0 0 0 0 0 0 0 
0 0 0 0 0 0 0 0 0 
0 0 0 0 0 0 0 0 0 
0 0 1.41059e-10 0 0 0 0 0 0 
0 4.76753e-10 0 0 0 0 0 7.05814e-10 0 
0 0 0 0 0 0 0 0 0 
0 0 0 3.12928e-10 0 0 0 0 0 
0 0 0 0 0 0 0 0 0 
0 0 9.19407e-10 5.05519e-10 0 0 0 0 0 
0 1.16626e-09 0 0 0 0 0 0 0 
0 0 1.41748e-08 0 0 0 0 0 0 
0 0 0 0 0 0 0 0 0 
0 0 0 0 1.07683e-09 0 0 0 0 
0 0 0 0 0 0 0 0 0 
0 0 9.04567e-10 0 0 1.45034e-10 0 0 0 
0 0 0 0 0 0 0 0 0 
0 0 0 0 0 0 0 0 0 
0 0 0 0 0 0 0 0 0 
0 0 0 0 0 0 0 8.2521e-10 0 
0 0 0 0 0 0 0 0 0 
0 0 1.07564e-08 0 0 0 0 0 0 
0 0 0 0 0 0 0 0 0 
0 0 0 0 0 0 0 2.91653e-10 0 
0 0 0 0 0 0 0 0 0 
0 0 0 0 0 0 0 0 0 
0 0 0 0 0 1.62732e-10 0 0 0 
0 0 0 0 0 0 7.91378e-10 4.00942e-10 0 
0 0 0 0 0 0 1.78292e-08 0 0 
0 0 0 9.47192e-08 0 0 3.99526e-10 0 0 
0 0 0 0 0 0 0 0 0 
0 0 0 0 0 0 0 0 0 
0 0 0 0 0 0 0 0 0 
0 0 0 0 0 0 0 0 0 
0 0 0 0 0 0 0 0 0 
0 0 0 0 0 0 0 0 0 
0 0 0 0 0 0 0 0 0 
0 0 0 0 0 0 0 0 0 
0 0 0 0 0 0 0 0 0 
0 0 7.03723e-10 0 0 0 0 0 0 
0 0 0 0 0 0 0 0 0 
0 0 0 0 0 0 0 1.20986e-09 0 
0 0 0 0 0 0 0 0 0 
0 0 0 0 0 0 0 0 0 
0 0 0 0 0 0 0 0 0 
0 0 0 0 0 0 0 0 0 
1.17298e-09 0 0 0 0 0 0 0 0 
0 0 0 0 0 0 0 0 0 
0 0 0 0 0 0 0 0 0 
0 0 1.2279e-09 0 0 0 0 0 0 
0 0 0 0 0 0 0 0 0 
0 0 0 0 0 0 0 1.61221e-10 2.33076e-10 
0 0 0 0 0 0 0 0 0 
0 0 0 0 0 0 0 0 0 
0 0 0 0 0 0 0 0 0 
0 0 0 0 0 0 0 0 0 
0 0 0 0 0 0 0 0 0 
0 0 0 0 0 0 0 5.54682e-10 0 
1.37845e-12 6.92619e-10 0 0 0 8.01963e-10 0 0 0 
0 0 9.46613e-10 0 0 0 0 0 0 
0 0 0 0 0 0 0 0 0 
0 0 0 1.01533e-09 0 0 0 0 0 
0 0 0 0 0 0 1.94347e-09 0 7.37323e-10 
0 0 0 0 0 0 0 0 0 
0 0 5.69131e-10 0 0 0 0 0 0 
0 0 0 0 0 0 0 0 7.46734e-10 
0 0 0 0 0 0 0 0 0 
0 0 0 0 0 0 0 0 0 
7.47214e-10 0 0 0 0 0 0 6.81847e-07 3.23757e-07 
0 0 0 0 0 0 0 0 0 
0 0 0 0 0 0 0 0 0 
0 0 0 0 1.15644e-10 0 0 0 0 
0 0 0 0 0 0 0 0 0 
0 0 0 0 0 0 0 0 0 
0 0 0 1.19316e-07 0 0 0 0 0 
0 4.45599e-10 0 0 0 0 0 0 0 
0 0 0 0 0 0 0 0 0 
0 0 0 0 0 0 0 3.08859e-10 0 
0 0 0 9.90857e-10 0 0 0 0 0 
0 0 0 6.07111e-10 0 0 0 0 0 
0 0 0 0 0 0 0 0 1.48198e-10 
0 0 0 0 0 0 0 0 0 
0 0 0 0 0 0 5.58522e-10 0 0 
0 0 0 0 0 0 0 0 0 
0 0 0 0 0 1.13476e-09 0 0 0 
0 0 1.01318e-09 0 0 0 9.74431e-10 0 0 
0 0 0 0 0 0 0 0 0 
0 1.37192e-09 8.57483e-10 0 7.7603e-10 0 0 0 0 
0 0 0 0 0 4.57934e-10 0 0 0 
0 0 0 0 0 0 0 0 0 
0 0 0 7.51129e-10 0 0 0 0 0 
0 0 0 0 0 0 0 0 0 
0 0 0 0 0 0 0 0 0 
8.3034e-11 0 0 0 0 0 0 0 0 
0 0 0 0 0 0 0 0 0 
0 0 0 0 0 0 0 0 0 
0 0 0 0 0 0 0 0 0 
0 0 0 0 0 0 0 0 0 
0 0 0 0 0 0 0 0 0 
0 0 0 0 0 0 0 0 0 
0 0 0 0 0 9.55769e-10 0 0 0 
0 0 0 0 0 0 0 0 0 
0 0 0 0 0 0 0 0 0 
0 0 0 0 0 0 0 0 0 
0 7.08962e-11 0 0 0 0 0 0 0 
0 0 0 0 3.41585e-10 0 0 0 0 
0 0 0 0 0 0 0 0 0 
0 0 0 0 0 0 0 0 0 
0 0 3.8181e-11 0 9.85239e-10 0 0 0 0 
0 0 0 0 0 0 0 0 0 
0 0 0 0 0 0 0 0 0 
0 0 0 1.37483e-09 0 0 0 0 0 
0 0 0 0 0 0 0 0 0 
0 0 0 0 0 0 0 1.06483e-09 0 
0 0 0 0 0 0 0 0 0 
0 0 0 0 0 0 0 0 0 
0 0 0 0 0 0 0 8.93323e-10 0 
0 0 0 0 4.18698e-10 0 0 0 0 
0 0 0 0 0 0 0 2.20431e-09 0 
1.60327e-10 0 0 0 0 0 0 0 0 
0 0 0 0 0 0 0 0 0 
0 0 0 0 0 0 0 0 7.73952e-10 
0 0 0 0 0 0 0 0 0 
0 0 0 0 0 4.41304e-10 0 0 0 
0 0 0 0 0 0 0 0 0 
0 0 0 0 8.28091e-10 0 0 0 4.09983e-10 
0 0 0 0 0 0 0 0 0 
0 0 0 0 0 0 0 0 0 
0 0 0 0 0 0 0 0 0 
0 0 0 0 0 0 0 0 0 
0 2.23254e-08 0 1.03318e-09 0 0 4.67491e-10 0 0 
0 0 0 0 0 0 0 0 0 
0 0 0 0 0 0 0 0 0 
0 0 0 9.67113e-10 0 0 0 0 0 
0 0 0 0 0 0 0 0 0 
0 1.59642e-10 0 0 0 0 0 4.23919e-10 0 
0 0 0 0 0 1.77473e-08 0 0 0 
0 0 0 0 0 0 0 0 0 
0 0 0 7.88269e-10 0 0 0 3.29424e-10 1.183e-08 
0 0 0 0 0 0 0 0 0 
0 0 0 0 0 0 0 0 0 
0 0 0 0 0 0 0 0 0 
0 0 0 0 0 0 0 0 0 
0 0 0 0 0 0 0 0 0 
0 0 0 0 0 0 0 0 0 
0 0 0 0 0 0 0 0 0 
1.25497e-09 0 0 0 0 0 0 0 0 
0 0 0 0 0 0 0 0 0 
0 0 0 0 0 0 0 0 0 
0 4.83633e-10 0 0 0 0 0 0 0 
0 0 0 0 0 0 0 0 0 
0 0 0 0 0 0 0 0 0 
0 0 0 0 0 0 0 0 0 
0 0 0 0 0 0 0 0 5.52033e-10 
0 0 0 0 0 0 0 0 0 
0 0 0 0 0 1.14067e-09 0 0 0 
0 0 0 0 0 0 0 7.67482e-10 0 
0 0 0 0 0 0 0 0 0 
0 0 7.87772e-10 0 0 0 0 0 0 
0 0 0 0 0 0 0 0 0 
0 0 0 0 0 0 0 0 0 
0 0 0 0 0 0 0 0 0 
0 0 0 0 0 0 0 0 0 
0 0 0 0 0 0 0 8.45336e-10 4.87006e-10 
0 0 0 3.56295e-10 0 0 0 0 0 
0 0 0 0 0 0 0 0 0 
0 0 0 0 0 0 0 0 8.63476e-10 
0 0 2.63721e-10 1.0652e-09 0 1.4971e-09 0 0 0 
0 0 0 0 0 0 0 0 0 
0 0 8.81187e-10 0 0 0 0 0 0 
0 0 0 0 0 0 0 0 0 
0 0 0 0 0 0 0 0 0 
0 0 0 0 0 0 0 0 0 
0 0 0 0 0 0 0 0 0 
0 0 0 0 0 0 0 0 0 
8.48956e-10 0 0 0 0 0 0 0 0 
8.044e-10 0 0 0 0 0 0 0 0 
0 0 0 0 0 0 0 0 0 
0 0 0 0 0 0 0 0 0 
0 0 0 0 0 0 0 0 0 
0 0 0 0 0 0 0 0 0 
6.15193e-10 0 0 0 0 9.87729e-10 0 0 0 
0 0 0 0 0 0 6.962e-10 5.22082e-10 0 
0 0 0 0 0 0 0 0 0 
0 7.6599e-10 0 0 0 0 0 0 0 
0 1.94134e-10 0 0 0 0 0 0 0 
0 1.22261e-09 0 0 0 0 0 0 0 
0 0 0 0 0 0 0 0 0 
0 0 0 0 0 0 0 2.75815e-11 0 
1.26402e-09 0 0 0 0 0 0 0 0 
0 4.34788e-10 0 0 0 0 0 0 0 
0 0 0 0 0 0 0 0 0 
0 0 0 9.75302e-10 0 0 0 0 0 
0 0 0 0 0 0 0 0 0 
0 0 0 0 0 0 0 0 0 
1.6611e-09 0 0 0 0 0 0 0 0 
0 0 0 0 0 0 0 0 0 
0 0 0 0 0 0 0 0 0 
1.33219e-09 2.86059e-10 0 0 0 0 0 0 0 
0 0 0 0 0 0 0 0 0 
0 0 0 3.34381e-08 0 0 0 0 1.30086e-08 
0 0 0 0 0 0 0 0 0 
1.72265e-09 0 0 0 0 0 3.42165e-10 0 0 
0 0 0 0 0 0 0 0 7.46013e-10 
0 0 0 0 0 0 0 0 0 
0 0 0 0 0 0 0 0 0 
0 0 0 0 0 0 0 0 0 
0 0 0 0 0 0 0 0 0 
0 0 0 0 0 0 0 0 1.10004e-09 
1.08547e-09 0 0 0 0 0 0 0 0 
0 0 0 0 0 0 0 0 0 
0 9.59787e-10 0 2.95313e-09 1.84846e-08 0 0 0 0 
0 0 0 1.01207e-09 0 0 0 0 0 
0 0 0 0 0 0 0 0 8.30472e-10 
0 0 1.1432e-08 0 0 0 0 0 0 
0 0 0 0 0 0 0 0 0 
0 0 0 0 0 3.2361e-10 0 0 0 
0 0 0 0 0 0 0 0 2.34228e-08 
0 0 0 0 0 0 0 0 0 
0 0 0 0 5.52561e-10 0 0 0 0 
0 0 0 0 0 0 0 0 0 
0 0 0 0 0 0 0 0 0 
0 0 0 6.05564e-10 0 0 0 3.7984e-10 0 
0 0 0 0 0 0 0 0 0 
0 0 0 0 0 0 0 3.90145e-10 0 
0 0 0 0 0 5.07013e-10 0 0 0 
0 0 0 0 0 0 0 0 0 
0 1.34683e-09 0 0 0 0 0 0 0 
0 0 0 0 0 0 0 0 0 
0 0 0 0 0 0 0 0 0 
0 0 0 0 0 0 0 0 0 
0 0 0 7.93538e-10 0 0 0 0 0 
0 0 0 3.52327e-09 0 0 0 4.88251e-10 0 
0 0 0 0 0 0 0 0 0 
0 0 0 0 0 0 0 1.72678e-08 0 
0 0 0 0 0 0 0 0 0 
0 0 0 0 0 0 5.06162e-10 0 0 
0 0 0 0 0 0 0 0 0 
0 0 0 0 0 0 9.76023e-10 0 0 
0 0 0 0 0 0 0 0 0 
0 0 0 7.87754e-10 0 0 0 0 0 
0 0 0 0 0 0 0 0 0 
0 0 0 0 0 0 0 5.81622e-10 0 
0 0 0 0 0 0 0 0 0 
0 8.53976e-10 0 0 0 0 0 0 0 
0 0 8.1724e-10 4.698e-10 0 0 0 0 0 
0 0 5.36778e-10 0 2.91285e-08 0 0 0 0 
0 0 0 0 0 0 0 0 0 
0 0 0 0 0 0 0 0 0 
0 0 0 0 0 0 0 5.82631e-10 0 
0 0 0 2.28997e-09 0 0 0 0 0 
0 0 0 0 0 0 0 8.37719e-10 0 
0 0 1.22922e-10 0 0 0 0 0 0 
0 0 2.58039e-09 0 0 0 2.5334e-10 0 2.16032e-08 
0 0 0 0 4.16144e-10 0 0 0 0 
0 0 0 0 0 0 0 0 0 
7.84667e-10 0 0 0 0 0 0 0 0 
0 0 0 0 0 0 0 0 0 
0 0 0 0 0 0 0 0 0 
6.74987e-10 0 0 0 6.60801e-10 0 0 0 0 
0 2.20458e-10 0 0 0 0 0 0 0 
0 0 0 0 0 0 0 
feature_3 1 2500 float
0 0 0 0 0 0 0 0 0 
0 0 0 0 0 3.45512e-10 0 0 0 
0 0 0 0 0 0 0 0 3.39263e-10 
0 0 0 0 0 0 0 0 0 
0 0 0 0 0 0 0 0 0 
0 0 0 0 0 1.13073e-09 0 0 0 
0 0 0 0 0 0 0 0 0 
1.03046e-09 0 0 0 0 0 0 0 0 
0 0 0 0 0 0 0 0 0 
0 0 0 0 0 0 0 0 0 
0 0 0 0 0 0 0 0 0 
0 0 0 0 0 0 0 0 0 
0 0 0 0 0 0 0 9.58646e-10 0 
0 0 0 1.37207e-09 0 0 6.95209e-10 0 0 
0 0 0 0 0 0 0 0 0 
0 0 0 8.56907e-10 0 0 0 0 0 
0 0 0 0 0 0 0 0 0 
0 0 0 0 0 0 0 0 0 
0 0 0 0 8.93571e-09 0 0 0 5.26665e-10 
0 0 0 0 0 0 0 0 0 
0 0 0 0 0 0 0 0 0 
0 0 0 0 0 0 0 0 0 
0 7.26349e-10 0 0 0 0 0 0 0 
0 0 0 0 0 0 0 0 0 
0 0 0 0 0 0 0 0 0 
0 0 0 0 0 0 0 0 0 
6.39226e-10 0 0 0 0 0 6.93374e-11 0 3.71355e-10 
4.64219e-10 0 0 0 0 0 2.91781e-10 0 0 
0 0 2.55589e-10 0 0 0 0 0 0 
0 0 0 0 0 0 0 0 0 
0 0 0 0 0 0 0 0 1.03569e-09 
0 0 0 0 0 0 0 0 0 
0 0 0 0 0 0 0 0 0 
0 0 0 0 0 0 0 0 0 
0 0 0 0 0 0 0 0 0 
0 0 0 0 0 0 0 0 0 
0 0 0 0 3.68306e-10 0 0 0 0 
0 0 0 0 0 0 0 0 0 
0 0 0 0 0 0 0 0 0 
0 0 0 0 6.60474e-10 0 0 0 0 
0 0 0 0 0 0 0 0 0 
0 0 0 0 0 0 0 0 0 
0 0 0 0 0 0 0 0 0 
0 0 0 0 0 0 0 0 0 
0 0 0 8.13685e-10 0 0 0 0 3.69734e-10 
0 0 0 0 0 0 0 0 0 
0 0 0 0 0 0 0 0 0 
2.98616e-10 0 0 0 0 0 0 0 0 
0 0 3.0245e-10 0 0 0 0 0 0 
0 0 0 0 0 0 0 0 0 
6.69889e-10 0 0 0 0 0 0 0 0 
0 0 0 0 0 0 0 0 0 
0 0 0 0 0 0 0 0 2.37385e-10 
0 0 0 0 0 0 0 0 0 
0 0 0 0 0 0 0 0 0 
0 0 0 0 0 0 0 0 0 
0 0 0 0 0 0 0 0 0 
0 0 0 0 0 0 0 0 0 
0 0 0 0 0 0 0 0 0 
0 0 0 0 0 0 0 0 0 
0 0 0 0 1.3667e-09 0 0 5.61117e-10 0 
0 0 0 0 0 0 0 0 0 
0 0 0 0 0 0 0 0 0 
0 0 0 0 0 0 0 0 0 
0 0 0 0 0 0 0 0 0 
0 0 0 0 0 0 0 0 0 
0 0 0 0 0 0 0 0 0 
0 0 0 0 0 0 0 0 0 
0 0 0 0 0 0 1.71685e-11 0 0 
0 0 0 0 0 0 0 0 0 
0 0 0 0 0 0 0 0 0 
0 0 0 0 0 0 0 0 0 
0 0 0 7.85157e-10 0 0 0 0 0 
0 0 0 0 0 0 0 0 0 
5.73085e-10 0 0 0 0 0 0 0 0 
0 0 0 0 0 0 0 0 0 
0 7.15765e-11 0 0 0 0 1.0164e-09 0 0 
0 0 0 0 0 0 0 1.07711e-09 0 
0 0 0 0 0 0 0 0 0 
1.0587e-09 0 0 0 0 0 0 0 0 
0 0 0 0 0 2.63462e-10 0 0 0 
0 0 0 0 0 0 4.1187e-10 0 0 
0 0 0 0 3.66583e-10 0 0 0 0 
0 0 0 0 0 0 0 0 0 
0 0 0 0 0 0 0 0 0 
0 0 0 9.68125e-10 0 0 0 0 0 
0 0 0 0 0 0 0 0 0 
0 0 0 0 0 0 0 0 0 
8.62723e-10 0 0 0 0 0 0 0 0 
0 0 0 0 0 0 0 0 0 
0 0 0 0 0 0 0 0 0 
0 0 0 0 0 0 0 0 0 
0 0 0 0 0 0 0 0 0 
0 0 0 0 0 0 0 0 7.57566e-10 
0 1.11875e-09 0 0 0 0 0 0 4.39265e-10 
0 0 0 5.12692e-11 0 0 4.48797e-10 0 0 
0 0 0 0 0 0 0 0 0 
0 0 0 0 0 0 0 0 0 
0 0 0 0 1.02423e-07 0 0 0 0 
0 0 0 0 0 0 0 0 0 
0 0 0 0 0 0 0 0 0 
0 0 0 0 0 0 0 0 0 
0 0 7.69646e-10 0 0 0 3.65567e-10 0 0 
0 0 0 0 0 0 0 0 0 
0 0 0 0 0 0 0 0 0 
0 1.09268e-09 0 0 0 0 0 0 0 
1.9315e-10 0 0 0 0 0 0 0 0 
0 0 0 0 0 0 0 0 0 
0 0 0 0 0 1.2313e-10 0 0 0 
0 0 0 0 0 0 0 0 0 
0 0 0 0 0 0 0 0 0 
1.00981e-09 0 0 0 0 5.5535e-10 0 0 0 
0 0 0 0 0 0 0 0 0 
3.77735e-10 0 0 0 0 0 0 0 0 
0 0 0 0 0 0 0 0 0 
0 0 0 0 0 0 0 0 0 
0 0 0 0 0 0 0 0 0 
5.58781e-10 0 0 0 0 0 0 0 0 
0 0 0 0 0 0 0 0 0 
0 0 0 0 0 0 0 0 0 
0 0 0 0 0 0 0 0 0 
0 0 0 0 0 0 1.13602e-09 9.37391e-10 0 
0 0 2.97292e-08 0 0 0 0 0 0 
0 0 0 0 0 0 2.38222e-10 0 0 
0 0 0 0 2.48738e-09 0 0 0 0 
0 0 5.68106e-09 0 0 0 0 0 0 
0 0 0 0 0 0 0 0 0 
0 0 0 0 0 0 0 0 1.0104e-09 
0 4.14072e-10 0 0 0 0 0 0 0 
0 0 0 0 0 0 0 0 9.40194e-10 
0 0 0 0 1.13044e-10 0 0 0 0 
0 0 0 0 0 0 0 0 0 
0 0 0 0 0 0 0 0 0 
0 0 0 0 0 0 0 0 0 
0 0 0 1.33547e-10 0 0 0 0 0 
0 0 0 0 0 0 0 0 0 
0 0 0 0 0 0 0 0 0 
0 0 0 0 0 0 0 0 0 
0 0 0 0 0 0 0 0 7.49536e-10 
0 0 0 0 0 0 0 0 0 
0 0 0 0 0 0 0 0 0 
0 0 0 0 0 0 0 0 0 
8.49907e-11 0 0 0 0 0 0 0 0 
0 0 0 0 0 0 0 0 0 
0 0 0 0 1.34443e-09 1.99775e-08 0 0 2.20547e-08 
0 0 0 0 0 0 0 7.12962e-10 0 
0 1.65284e-08 0 0 0 0 0 0 0 
0 7.99201e-10 0 0 0 0 0 0 0 
0 0 0 0 0 0 0 0 0 
0 0 0 0 0 0 0 0 0 
0 0 0 0 0 0 0 0 4.37655e-10 
0 0 0 0 0 8.21743e-10 0 0 0 
0 0 0 0 0 0 0 0 0 
0 0 0 0 0 4.24256e-10 0 0 0 
0 0 0 0 0 0 0 0 0 
0 9.53296e-10 0 0 0 0 0 0 0 
0 0 0 0 0 0 0 0 0 
0 0 0 0 0 0 0 0 0 
0 0 0 0 0 0 0 0 0 
0 0 0 0 0 0 0 0 0 
0 0 0 0 0 0 0 3.396e-10 0 
2.0081e-10 0 0 0 0 0 0 0 0 
0 0 5.07807e-10 0 0 0 3.88925e-10 0 0 
0 0 0 0 0 0 0 0 0 
0 0 0 0 0 0 0 0 0 
0 0 0 0 0 0 0 0 0 
0 0 0 0 0 0 0 0 0 
0 0 0 0 0 0 0 1.00698e-09 0 
0 0 0 0 0 0 0 0 0 
0 0 0 0 0 0 0 0 0 
0 0 0 0 0 0 0 0 0 
0 0 0 0 0 0 0 0 0 
0 0 0 0 0 0 0 0 0 
0 0 0 8.86924e-10 0 0 0 0 0 
0 0 0 0 0 0 0 0 0 
0 0 0 0 0 0 0 0 0 
0 0 0 0 0 0 0 0 0 
0 0 0 0 0 0 0 0 0 
0 0 0 0 4.23988e-10 0 0 0 0 
0 0 0 0 0 0 0 0 0 
0 0 0 0 6.12139e-10 9.17211e-10 0 0 0 
0 2.92298e-10 0 0 0 0 0 4.05528e-10 0 
0 0 0 0 0 4.90264e-10 0 0 0 
0 0 0 0 0 0 0 0 0 
0 0 0 0 0 0 0 0 0 
4.91328e-10 0 5.99972e-10 0 0 0 0 0 0 
0 4.02649e-10 1.69109e-11 0 0 0 0 0 0 
0 0 0 0 0 0 0 0 0 
0 0 0 8.84082e-10 0 0 0 0 0 
0 0 0 0 0 0 0 0 0 
0 0 0 0 0 0 0 1.24787e-10 0 
0 0 0 0 0 0 0 0 0 
0 0 0 2.26404e-10 0 0 0 0 0 
0 0 0 0 0 0 0 0 0 
0 0 0 0 0 0 0 0 0 
0 0 0 0 1.4344e-09 0 0 0 0 
0 0 0 0 0 0 0 8.86345e-10 0 
0 0 1.00205e-09 0 0 0 0 0 0 
2.82318e-08 0 0 0 0 0 0 4.32603e-10 0 
0 0 0 1.11897e-09 0 0 0 0 0 
1.51433e-08 0 0 0 0 0 0 0 0 
0 0 0 0 0 0 0 0 0 
0 0 0 4.18702e-10 0 0 0 0 8.3125e-10 
0 0 0 0 0 0 0 0 0 
0 0 0 0 0 0 0 0 0 
0 0 0 0 0 0 0 0 0 
0 0 0 0 0 5.11982e-10 0 0 0 
0 0 0 0 0 0 0 0 0 
0 0 0 5.50129e-10 0 0 0 0 0 
0 0 0 0 0 0 0 0 0 
0 0 0 0 0 0 0 0 0 
0 0 0 0 0 0 0 0 0 
0 0 0 0 0 0 0 0 0 
0 0 0 0 0 0 0 0 0 
0 0 0 0 0 0 0 0 0 
0 0 0 0 0 8.30543e-10 0 0 0 
0 0 0 0 0 0 0 0 0 
0 0 0 0 0 5.26695e-10 0 0 0 
0 0 0 0 0 5.71291e-10 0 0 0 
0 0 0 0 0 0 0 0 0 
0 0 0 0 0 0 0 0 0 
0 0 0 0 0 0 0 1.03954e-09 0 
0 0 0 6.15863e-10 0 0 0 0 0 
0 0 0 0 0 0 0 0 0 
0 0 0 0 0 0 0 0 0 
0 0 0 0 0 0 0 0 1.30035e-09 
0 0 0 0 0 0 0 0 0 
0 0 5.09182e-10 0 0 0 0 0 0 
0 0 0 0 0 0 0 0 0 
2.86004e-10 0 0 0 0 0 0 0 0 
0 8.31143e-10 0 0 0 5.35512e-10 0 0 0 
0 0 0 0 0 0 0 0 0 
6.69765e-10 0 0 0 0 1.01319e-09 0 0 0 
0 0 0 0 0 0 0 0 0 
0 0 0 0 0 0 0 0 0 
0 0 0 0 0 0 0 0 0 
0 0 0 0 0 0 0 0 0 
0 0 0 0 0 0 0 0 0 
0 0 0 0 0 0 0 0 0 
0 1.10144e-09 0 0 0 0 0 0 0 
0 0 0 0 0 0 0 6.84238e-10 0 
0 1.79231e-10 0 0 0 0 0 0 8.94573e-10 
0 0 0 0 0 0 0 0 0 
0 0 0 0 0 0 0 0 0 
0 0 0 0 0 0 0 0 0 
0 0 0 0 0 0 0 0 8.61018e-10 
0 0 0 0 0 0 0 0 0 
0 0 1.05463e-09 0 0 0 0 0 0 
0 0 0 0 0 0 0 0 0 
0 0 0 0 0 0 0 0 0 
1.31536e-08 0 0 0 0 0 0 0 0 
0 0 0 0 0 0 0 0 0 
0 0 0 0 0 0 0 0 0 
0 0 0 0 0 0 0 0 0 
0 0 0 0 0 0 0 0 0 
0 0 0 0 0 0 0 0 0 
0 0 0 0 0 0 0 0 0 
0 0 1.06812e-09 0 0 0 0 0 0 
0 0 0 0 0 0 0 0 0 
0 0 0 0 0 0 0 0 0 
0 0 0 0 0 0 0 0 0 
0 0 0 0 0 0 0 0 0 
0 0 0 0 0 0 0 0 5.33763e-10 
0 0 9.68036e-10 0 0 0 0 0 0 
0 0 0 0 0 0 0 0 0 
0 0 0 0 0 0 0 0 0 
0 0 0 0 0 0 0 0 0 
0 0 0 0 0 0 0 0 0 
0 0 0 0 0 0 0 0 0 
0 0 0 0 0 0 0 0 0 
7.38492e-10 0 0 0 0 0 0 0 0 
0 0 7.64157e-10 0 0 0 0 0 0 
0 7.82851e-10 0 0 0 0 0 0 0 
0 0 0 0 0 0 0 0 0 
0 0 0 0 0 0 0 1.2496e-09 0 
0 2.15422e-08 6.76533e-10 0 0 5.83928e-10 0 0 0 
0 0 0 0 0 0 0 0 0 
0 0 0 0 0 0 0 
feature_4 1 2500 float
0 0 0 0 0 0 0 0 0 
0 1.06786e-09 0 1.26586e-09 0 0 0 0 0 
0 0 0 6.00753e-10 0 0 1.01469e-09 0 0 
0 0 0 0 0 0 0 0 0 
0 0 0 0 0 0 0 0 0 
0 0 0 0 0 0 1.59648e-10 0 0 
0 0 0 0 0 0 0 0 0 
0 0 0 0 0 0 0 0 0 
0 0 0 3.46929e-10 0 0 0 0 0 
0 0 0 0 0 0 0 0 0 
0 0 0 0 0 0 0 0 0 
0 0 1.32642e-09 0 0 0 0 0 0 
0 0 0 0 0 0 0 0 0 
0 0 0 0 0 0 0 0 0 
0 3.60888e-10 0 0 0 0 0 0 5.42897e-10 
0 0 0 0 0 0 0 0 0 
0 5.0326e-10 0 0 0 1.08914e-09 8.7449e-10 0 0 
0 0 0 0 0 0 0 0 0 
0 0 0 0 0 0 0 0 0 
0 0 0 0 0 0 0 0 0 
0 0 0 0 0 3.33397e-10 0 0 0 
0 0 0 0 0 0 0 0 3.62274e-10 
0 0 0 0 0 0 0 0 0 
0 0 0 0 0 0 0 0 0 
0 0 0 0 0 0 0 0 0 
0 0 0 0 0 0 0 0 0 
0 0 0 0 0 1.76401e-10 0 0 0 
7.4623e-10 0 0 0 0 0 0 0 0 
0 0 0 0 0 0 0 0 0 
0 0 0 0 0 0 0 0 0 
0 0 0 0 0 0 0 0 0 
0 0 9.5001e-10 0 0 1.46215e-10 0 0 0 
0 0 0 0 0 0 0 0 0 
0 0 0 0 0 0 0 0 0 
0 0 0 0 0 0 0 0 0 
0 0 0 0 0 0 0 8.56861e-10 0 
0 0 0 0 0 0 0 0 0 
0 0 3.56302e-11 0 0 0 0 0 0 
0 0 8.00696e-10 0 0 0 0 0 0 
0 0 0 0 0 0 0 0 0 
0 0 0 0 0 0 0 0 0 
0 0 0 0 0 0 0 0 0 
0 0 0 0 0 0 0 0 0 
0 5.08699e-10 0 0 0 0 0 0 0 
0 0 0 0 0 0 5.90436e-10 0 0 
0 0 0 0 0 0 0 0 0 
0 0 0 0 0 0 0 0 0 
0 0 0 0 0 0 0 0 6.03166e-10 
0 0 0 0 1.05153e-09 0 0 0 0 
0 0 0 0 0 0 0 0 0 
0 0 0 0 0 0 0 0 0 
0 0 0 5.94454e-10 0 0 0 0 0 
0 0 0 0 0 0 0 4.28706e-11 0 
0 0 0 6.08861e-10 0 0 0 0 0 
0 0 0 0 0 0 0 0 0 
0 0 0 0 0 0 0 0 0 
0 0 0 0 0 1.68226e-10 0 0 0 
0 0 0 0 0 0 0 0 0 
0 8.86935e-10 0 0 0 0 1.09884e-10 0 0 
0 0 0 7.52927e-10 0 0 0 0 0 
0 0 0 0 0 0 0 0 0 
0 0 0 0 0 0 0 0 0 
0 0 0 0 0 0 8.16559e-10 0 0 
0 0 0 0 0 0 0 0 0 
0 0 0 0 0 0 0 0 0 
0 0 0 0 0 0 0 0 0 
0 0 7.38243e-10 0 0 0 0 0 0 
0 0 5.31415e-10 0 0 0 0 0 0 
0 0 0 0 0 0 0 0 0 
0 0 0 0 0 0 0 0 0 
0 0 7.71958e-10 0 0 0 0 0 0 
0 0 0 0 0 0 0 0 0 
0 0 0 0 0 0 0 0 0 
0 0 0 0 0 0 0 0 0 
0 0 0 0 0 0 0 0 0 
0 0 0 0 0 0 0 0 0 
0 0 0 0 0 0 0 0 0 
0 0 0 0 0 0 0 0 0 
0 0 0 0 0 0 0 0 0 
0 0 0 0 0 0 0 0 0 
3.2165e-10 0 0 0 0 0 0 0 0 
0 0 0 0 0 0 0 6.67495e-10 3.35563e-10 
0 0 0 0 0 0 0 0 0 
0 0 0 0 0 0 0 0 0 
0 0 0 0 0 0 0 0 0 
0 0 0 0 0 0 0 0 0 
0 0 0 0 0 0 0 0 0 
0 0 0 0 0 0 0 0 0 
0 0 0 0 0 0 0 0 0 
0 0 0 0 0 0 0 0 0 
0 0 3.50049e-10 1.05589e-09 0 0 0 0 0 
0 0 0 0 0 0 0 0 0 
0 0 0 0 0 0 0 0 0 
0 0 0 0 0 0 0 0 0 
0 0 0 0 0 0 0 0 0 
0 0 0 0 0 0 0 0 0 
0 0 0 0 0 0 0 0 0 
0 0 0 0 0 0 0 0 0 
4.0934e-10 0 0 0 0 0 0 0 1.17412e-09 
0 0 0 0 0 0 0 0 0 
0 0 0 0 0 0 1.12994e-09 0 0 
0 0 0 0 0 0 0 0 0 
0 6.17614e-10 0 0 0 0 0 0 0 
1.16807e-09 0 0 0 0 0 0 0 0 
0 0 0 0 0 0 0 0 0 
0 0 0 0 0 0 0 0 0 
0 0 0 0 0 0 0 0 0 
0 0 8.50715e-10 0 0 0 0 0 7.43928e-10 
0 0 0 0 0 0 0 0 0 
0 0 3.37447e-10 0 0 0 0 0 0 
0 0 0 0 0 0 0 0 0 
0 0 0 7.91076e-10 0 0 0 0 0 
0 0 0 0 0 0 0 0 0 
0 0 0 0 0 0 0 0 0 
0 0 0 0 0 0 0 0 0 
0 0 0 0 0 0 0 0 0 
0 0 0 0 0 0 0 0 0 
0 0 0 0 0 0 0 0 0 
0 0 0 0 0 0 0 0 0 
0 0 0 0 0 0 8.39567e-10 8.68681e-10 0 
0 0 0 0 0 0 0 0 0 
0 0 0 0 0 0 0 7.33877e-10 0 
0 0 0 0 0 0 0 0 0 
0 0 0 0 0 0 0 0 0 
0 0 0 0 0 0 0 0 0 
0 0 0 0 5.44278e-10 0 0 0 0 
0 0 0 0 0 0 0 0 0 
0 0 0 0 0 0 0 0 0 
0 7.47296e-11 0 0 0 0 0 0 0 
0 0 0 0 0 0 0 0 0 
0 0 0 0 0 0 0 0 0 
0 0 0 0 0 0 0 0 0 
0 0 0 3.17705e-10 0 0 0 0 0 
0 0 0 0 0 0 0 0 0 
0 0 0 0 0 0 0 0 0 
0 0 0 0 0 0 0 5.85491e-10 0 
0 0 0 0 0 0 0 0 0 
0 0 0 0 0 0 0 0 0 
0 0 0 0 0 0 0 0 0 
0 0 0 0 0 0 0 0 0 
0 1.49169e-09 0 0 0 3.99043e-10 0 0 0 
0 0 0 0 0 0 0 0 0 
0 0 0 0 0 0 0 0 0 
0 7.86539e-10 0 0 0 0 0 9.28477e-10 0 
0 0 0 0 0 0 0 0 0 
0 0 0 0 0 0 0 0 0 
0 0 0 0 0 0 0 0 0 
0 0 0 0 0 0 5.78657e-10 0 0 
0 0 0 0 0 0 0 0 0 
0 0 0 0 0 0 0 0 1.01415e-09 
0 0 0 0 0 0 0 0 0 
0 0 0 1.38293e-09 0 0 0 0 0 
0 0 0 0 0 0 0 0 0 
0 0 0 0 0 0 0 0 0 
0 0 0 0 0 0 9.68708e-10 0 0 
0 0 0 0 0 0 0 1.92397e-10 0 
0 0 0 0 0 0 0 0 0 
0 0 0 1.04182e-09 4.26606e-10 0 0 0 0 
0 0 0 0 0 0 0 0 0 
0 0 0 0 0 0 0 0 0 
0 0 0 0 0 0 0 0 0 
0 0 0 0 0 0 0 0 0 
0 5.49935e-10 0 0 0 0 0 0 0 
0 0 0 0 0 0 0 0 0 
0 0 0 0 0 0 0 0 0 
0 0 0 0 0 0 0 0 0 
0 0 0 0 0 0 0 0 0 
0 0 0 0 0 0 0 0 0 
0 0 0 0 0 0 0 0 0 
0 0 0 0 0 0 0 0 2.91299e-10 
0 0 0 0 0 0 0 0 0 
0 6.30646e-10 0 0 0 0 7.56387e-10 0 0 
0 0 0 0 0 0 0 0 0 
0 0 0 0 0 0 0 0 0 
0 0 0 0 0 0 0 4.30182e-10 0 
0 1.14642e-09 0 0 0 0 7.42151e-10 0 0 
6.57433e-10 0 0 0 0 0 0 7.56893e-10 0 
0 0 0 0 0 0 0 0 0 
0 0 0 0 0 0 0 0 0 
0 0 0 0 0 0 0 0 0 
0 4.7925e-10 0 0 0 0 4.24083e-10 0 0 
0 0 0 0 0 0 0 0 0 
0 0 0 0 0 0 0 0 0 
0 0 0 0 0 0 0 0 0 
0 0 0 0 0 0 0 0 0 
0 0 0 0 0 0 0 0 0 
3.85318e-10 0 0 0 0 0 0 0 0 
0 0 0 0 0 0 0 0 0 
0 0 0 0 0 0 0 6.44722e-10 0 
0 0 0 0 0 0 0 0 0 
0 0 0 0 0 0 0 0 0 
0 0 0 0 0 8.05056e-10 0 0 0 
0 0 0 0 0 0 0 0 0 
0 0 0 0 9.77462e-10 0 5.16721e-10 0 0 
0 0 0 0 0 0 0 0 0 
0 0 0 0 0 0 0 0 0 
0 0 0 0 0 0 0 0 0 
0 0 0 0 0 0 0 0 0 
0 0 0 0 0 0 0 0 0 
0 0 0 0 0 0 0 0 0 
0 0 0 0 0 0 0 0 0 
0 0 0 0 0 0 0 0 0 
8.52218e-10 0 0 0 0 0 0 0 0 
0 0 0 2.92779e-10 0 0 0 0 0 
0 0 3.29321e-10 0 0 0 0 0 0 
0 0 0 0 0 0 0 0 0 
0 0 0 0 0 0 0 0 0 
0 0 0 0 0 0 0 0 0 
0 0 0 0 0 0 0 0 0 
9.90873e-10 0 4.44693e-10 5.83857e-10 0 0 0 0 0 
0 0 0 0 0 0 0 0 0 
0 0 0 0 0 0 0 0 0 
0 0 0 5.41142e-10 0 0 0 0 0 
0 0 0 0 0 0 1.07925e-09 0 0 
0 0 0 0 0 0 0 0 0 
0 0 0 0 0 0 0 0 0 
0 0 0 0 0 0 0 0 0 
0 0 0 0 0 0 0 0 0 
0 0 0 0 0 0 0 0 0 
0 0 0 0 0 0 0 0 0 
0 0 0 0 0 0 0 0 0 
0 0 0 0 0 0 0 0 0 
0 0 0 0 0 0 0 0 0 
0 0 0 0 0 0 0 0 0 
0 0 7.80958e-10 0 0 0 0 0 0 
0 0 0 0 0 0 0 0 0 
0 0 0 0 0 0 0 0 0 
0 0 0 0 0 0 0 0 0 
7.78982e-10 0 0 0 0 0 0 1.04224e-09 0 
0 0 0 0 0 0 0 0 0 
0 0 0 0 0 0 0 0 0 
3.74964e-10 0 0 0 9.33081e-10 0 0 0 0 
0 0 0 0 0 0 0 0 0 
0 0 0 0 0 0 0 0 0 
0 0 0 0 0 0 0 0 0 
0 0 0 7.85507e-10 0 0 1.107e-09 0 0 
0 0 0 3.23393e-10 0 0 0 0 0 
0 0 0 0 0 0 0 0 0 
0 0 0 0 0 0 0 0 0 
0 0 0 0 0 0 0 1.00574e-09 0 
0 0 0 5.10067e-10 0 0 0 0 0 
0 0 0 0 0 8.36586e-10 0 0 0 
0 0 0 0 0 0 0 0 0 
0 0 0 0 0 0 0 1.37659e-09 0 
0 0 0 0 0 0 0 0 0 
0 0 0 0 0 0 0 0 0 
0 0 9.88997e-10 0 0 0 0 0 0 
0 0 0 0 0 0 0 0 0 
0 0 0 0 0 0 0 0 0 
0 0 7.92955e-10 0 0 0 0 0 0 
0 0 0 0 0 0 0 0 0 
0 0 0 0 0 0 8.16531e-10 0 0 
0 0 0 0 0 5.47804e-10 0 0 0 
5.04098e-10 0 0 0 0 0 0 0 0 
0 0 0 0 7.86763e-10 0 0 0 0 
0 0 0 0 0 0 0 0 0 
0 0 0 0 0 0 0 0 0 
0 0 0 0 0 0 0 0 0 
0 4.6396e-10 0 4.44803e-10 0 0 0 0 0 
0 0 0 7.84123e-10 0 0 0 0 0 
0 0 0 0 0 0 0 0 0 
0 0 0 0 0 0 0 0 0 
0 0 6.99121e-10 0 0 0 0 0 0 
0 0 0 0 0 0 0 0 0 
0 0 0 0 0 0 0 0 0 
0 0 4.46651e-10 0 0 0 0 0 0 
0 0 0 0 0 0 0 0 0 
0 0 0 0 0 0 8.81872e-10 0 0 
0 0 0 0 0 0 0 1.10662e-09 0 
0 0 0 0 0 0 0 0 0 
0 0 0 0 0 0 0 0 0 
0 0 0 0 0 0 0 0 0 
0 0 0 0 0 3.27848e-10 0 0 0 
0 1.06603e-09 0 0 0 0 0 0 0 
0 0 0 0 0 0 0 0 0 
0 0 0 0 0 9.75099e-10 0 0 0 
0 0 0 0 0 0 0 0 0 
0 0 0 0 0 0 0 
feature_5 1 2500 float
0 0 0 0 0 0 0 0 0 
0 0 0 0 0 0 0 0 0 
0 0 0 0 0 0 0 0 0 
0 0 0 0 0 0 8.46242e-10 0 0 
2.128e-10 0 0 0 0 5.09381e-10 0 0 0 
0 0 0 0 0 0 0 0 0 
0 1.24767e-09 0 0 0 0 0 0 0 
0 0 0 0 0 0 0 0 0 
0 0 0 0 0 0 0 0 0 
0 0 0 0 0 0 0 1.39541e-09 0 
0 0 9.91172e-10 0 0 0 0 0 0 
3.27454e-08 0 1.172e-09 0 0 0 0 0 0 
0 0 3.8564e-10 0 5.49051e-10 0 0 0 0 
0 0 0 0 0 0 0 0 0 
0 0 0 0 0 0 0 0 0 
0 0 0 0 0 0 6.63082e-10 0 0 
0 0 0 0 0 0 0 0 8.62965e-10 
0 0 0 0 0 0 2.20435e-10 0 0 
0 0 0 0 0 0 0 0 0 
0 0 0 0 0 0 0 0 0 
0 0 0 0 0 0 6.36103e-10 0 0 
0 0 0 3.05831e-08 0 0 2.26695e-10 0 2.47978e-08 
0 0 5.78449e-10 6.72564e-10 0 0 0 0 0 
0 0 0 0 0 0 0 0 0 
0 0 1.40148e-08 0 0 0 0 0 0 
0 0 0 0 0 0 0 0 1.33013e-09 
0 0 0 0 0 0 0 0 0 
0 0 1.46927e-08 0 0 0 0 0 0 
0 0 0 0 0 0 0 9.47061e-10 0 
0 0 0 0 0 0 0 0 0 
0 0 0 0 0 0 0 0 0 
0 0 0 0 0 0 0 3.13172e-10 0 
0 0 0 0 1.02017e-09 0 0 0 0 
0 0 0 1.21092e-10 0 0 0 0 0 
0 0 0 0 0 0 0 0 0 
0 0 0 0 0 0 0 0 0 
0 0 0 0 0 0 0 0 0 
0 0 0 0 0 0 0 1.39405e-08 0 
0 0 0 7.55712e-10 0 0 0 0 0 
0 0 0 0 0 0 0 0 0 
0 5.43764e-10 0 0 0 0 0 0 0 
7.93452e-10 0 0 0 0 0 0 0 0 
0 0 0 0 0 0 0 0 0 
1.94966e-10 0 0 0 8.55451e-10 0 0 0 0 
0 0 0 0 0 0 1.86187e-08 0 0 
0 0 0 1.27293e-07 0 0 0 0 3.93256e-09 
0 0 0 9.86034e-10 0 5.07939e-10 0 0 0 
0 0 0 0 0 0 0 0 1.00685e-09 
0 0 0 0 0 0 0 0 0 
0 0 0 0 0 0 0 0 0 
0 0 0 0 0 0 0 0 0 
0 9.3873e-10 0 0 8.25835e-10 0 0 0 0 
0 0 0 0 0 0 0 0 0 
0 0 0 0 0 0 0 0 0 
0 0 0 0 0 0 0 0 0 
7.1956e-10 0 0 1.10621e-09 0 0 0 0 0 
2.35797e-08 0 0 0 0 0 0 0 0 
0 0 0 0 0 0 0 1.43974e-09 0 
0 8.37353e-10 0 0 0 0 0 0 5.69798e-10 