# vtk DataFile Version 5.1
vtk output
ASCII
DATASET STRUCTURED_POINTS
DIMENSIONS 50 50 1
SPACING 1 1 1
ORIGIN 0 0 0
POINT_DATA 2500
FIELD FieldData 6
feature_1 1 2500 float
0 0 0 0 6.54126e-10 0 0 0 0 
0 0 0 0 0 0 0 0 0 
0 0 0 0 0 0 9.79771e-10 0 0 
0 0 0 0 0 0 0 0 0 
0 0 0 0 0 0 0 0 7.93762e-10 
0 0 0 0 0 0 0 0 0 
0 0 8.00291e-10 0 1.01358e-10 0 0 0 0 
0 0 0 0 0 0 3.19075e-10 0 0 
0 0 0 0 0 0 0 0 0 
0 0 0 0 0 0 0 0 0 
6.55307e-10 0 0 3.10564e-10 0 0 0 6.36355e-10 8.43787e-10 
0 5.15399e-10 0 0 0 0 0 0 0 
0 0 0 0 0 0 0 0 0 
0 0 0 0 0 0 0 0 0 
0 2.6274e-10 0 0 0 0 0 0 0 
0 0 0 0 0 0 0 0 0 
0 6.06114e-10 0 0 0 0 0 0 0 
0 0 8.2386e-10 0 0 0 0 0 0 
0 0 0 0 0 0 0 0 0 
0 0 0 0 0 0 0 0 0 
0 0 0 0 0 0 0 0 0 
0 0 0 0 0 0 0 5.11918e-10 0 
0 0 0 0 0 0 0 0 0 
0 0 0 0 0 0 0 0 0 
0 0 0 0 3.45738e-10 0 0 5.42709e-10 2.85947e-10 
0 0 0 0 0 0 0 0 0 
0 0 0 0 0 0 0 0 0 
0 0 0 0 0 0 0 0 7.85448e-10 
0 0 0 0 0 0 0 0 0 
0 0 0 0 0 0 0 0 0 
0 0 0 0 0 0 0 0 0 
0 0 0 7.38659e-10 0 0 0 0 0 
0 0 0 0 0 0 0 0 0 
0 0 0 1.81894e-10 0 0 0 0 0 
0 8.15866e-10 0 0 3.08539e-10 0 0 0 0 
0 0 0 1.52151e-10 0 0 0 0 0 
0 0 0 0 0 0 0 0 0 
0 0 0 0 0 1.04301e-10 0 0 0 
0 0 0 0 0 0 0 0 0 
0 0 0 0 0 0 0 7.59382e-10 0 
0 0 0 5.51591e-10 0 0 0 0 2.63397e-08 
1.14128e-09 0 0 0 0 0 0 0 6.77244e-06 
5.08933e-08 0 0 0 0 0 0 0 0 
0 0 0 0 0 0 0 0 0 
0 0 0 0 0 0 0 0 0 
0 0 0 6.78091e-06 0 0 0 0 0 
0 0 0 0 6.79166e-06 0 0 0 0 
0 0 0 1.84812e-10 0 0 0 0 0 
0 9.53868e-10 0 0 0 0 0 0 0 
0 0 0 0 0 0 0 0 0 
0 6.25253e-10 0 0 0 0 0 0 3.33348e-10 
0 0 0 0 0 0 0 0 2.98719e-08 
0 0 0 0 0 0 0 0 0 
0 0 2.49428e-09 0 0 0 0 0 0 
0 0 0 0 0 0 0 0 0 
0 0 0 0 0 0 0 0 0 
3.27695e-10 0 0 0 0 0 0 0 0 
0 0 0 7.18633e-06 0 1.22258e-09 0 0 0 
0 0 0 0 0 0 0 0 0 
0 0 3.19261e-08 0 1.25803e-09 0 0 0 0 
6.87254e-06 0 0 0 0 3.70594e-10 0 0 0 
0 0 0 0 3.29354e-10 0 0 0 0 
0 0 7.19065e-06 0 0 7.02533e-06 0 7.35816e-06 1.03599e-09 
0 0 0 4.68361e-10 0 0 0 0 0 
0 0 0 0 0 0 8.09851e-06 8.39625e-06 0 
0 3.77267e-08 6.88848e-06 0 0 3.28685e-08 0 0 0 
0 0 0 0 0 0 0 0 0 
0 0 0 0 0 6.10111e-08 7.16888e-06 0 0 
0 0 0 0 0 0 0 0 0 
0 0 0 0 1.83594e-10 0 0 0 0 
0 9.33568e-10 0 0 7.2546e-06 0 0 3.50555e-08 0 
6.93485e-06 0 0 0 0 0 0 0 0 
0 0 0 3.25649e-10 0 0 0 0 0 
0 1.51388e-08 0 0 0 0 0 0 0 
0 0 0 0 0 0 0 0 6.80389e-06 
0 0 6.81084e-06 0 0 0 0 0 0 
0 1.31547e-09 0 0 0 0 0 0 0 
4.3962e-10 0 6.12445e-10 0 0 0 0 0 0 
0 0 0 0 0 6.07283e-10 0 0 0 
0 0 0 0 0 0 0 0 0 
0 4.0504e-10 0 0 2.23775e-08 0 0 5.34755e-08 0 
0 0 0 0 0 0 0 0 0 
0 0 0 0 0 0 0 0 0 
0 0 0 0 0 0 0 0 0 
0 0 1.74179e-10 0 0 6.91651e-06 0 2.59533e-07 7.38915e-06 
0 0 0 0 0 0 0 0 0 
0 0 0 0 0 0 0 6.87038e-06 6.54239e-08 
0 0 0 0 0 0 0 0 0 
0 0 0 0 0 0 0 0 1.21225e-09 
0 0 0 0 0 0 0 0 0 
0 4.68681e-08 0 7.64016e-06 0 0 0 0 0 
8.67711e-10 1.66602e-08 6.7992e-06 3.16462e-08 0 0 0 7.24292e-11 0 
0 0 0 0 5.6658e-08 0 0 0 0 
0 0 0 0 0 0 0 0 0 
0 0 0 0 0 0 0 0 0 
0 0 0 4.96965e-10 1.99428e-10 0 0 0 0 
7.45456e-06 0 0 7.82786e-09 0 9.21901e-10 0 0 0 
0 0 2.22499e-08 0 0 0 8.15369e-09 0 0 
0 0 0 0 6.12431e-07 0 0 0 0 
1.10382e-09 0 3.70246e-10 2.86249e-10 0 0 0 7.1784e-10 0 
5.25533e-10 0 0 1.26688e-09 0 0 0 0 0 
0 0 6.83899e-06 0 0 0 3.85963e-08 0 0 
0 3.08386e-10 0 0 0 0 0 0 6.97853e-06 
0 0 0 0 0 8.10885e-06 0 0 7.50069e-06 
0 7.56081e-06 0 0 0 0 2.85777e-10 0 0 
0 0 0 0 0 0 0 0 0 
0 0 0 0 0 0 0 0 0 
0 0 7.07911e-06 0 7.22903e-06 7.35755e-08 8.60325e-06 9.3048e-06 0 
0 0 0 4.94242e-08 0 0 0 0 0 
0 5.60421e-08 0 0 0 7.99564e-06 0 0 0 
0 0 0 0 0 0 0 0 0 
0 0 0 5.7409e-10 0 0 0 0 0 
0 0 0 0 0 0 0 0 0 
0 0 0 8.41405e-06 4.19944e-08 6.7315e-10 0 0 0 
0 0 0 0 0 0 0 0 7.41808e-06 
0 0 7.43924e-06 0 0 0 0 0 0 
0 0 0 0 0 0 0 0 0 
0 0 0 0 0 0 0 0 0 
0 0 0 0 0 0 0 0 3.14217e-08 
0 0 0 0 0 0 0 0 0 
0 7.09022e-06 0 7.53825e-06 0 0 0 2.88695e-08 0 
0 0 0 0 0 0 0 0 0 
0 0 0 0 0 0 0 0 2.55512e-08 
8.01405e-06 8.0192e-06 0 0 3.89786e-10 0 0 6.78839e-06 0 
0 0 0 0 2.01698e-08 0 0 0 0 
9.96305e-11 0 0 0 0 0 0 0 6.94393e-08 
0 0 0 0 0 0 0 0 0 
0 0 0 0 0 0 0 0 0 
0 0 0 0 1.6726e-08 0 0 0 0 
0 0 0 4.42598e-08 0 0 3.25869e-08 6.86351e-06 0 
0 0 0 0 0 0 7.1839e-06 0 0 
0 0 0 7.13895e-06 0 7.12213e-06 0 0 6.83564e-06 
2.74569e-08 0 0 0 5.14978e-10 0 0 0 0 
0 0 0 0 0 0 0 0 0 
0 0 1.4386e-10 0 0 0 0 0 0 
0 0 0 0 0 0 0 0 0 
0 0 0 7.20066e-06 0 0 0 0 0 
0 1.38511e-08 0 0 0 0 0 0 0 
0 0 0 0 0 0 0 0 0 
0 0 0 0 0 0 0 0 0 
0 0 0 0 0 0 0 0 0 
6.95443e-06 0 0 0 0 8.21172e-06 0 0 0 
0 0 0 0 0 0 0 1.03615e-08 0 
0 0 0 0 0 0 3.80316e-10 0 0 
0 0 0 0 0 0 0 0 0 
0 0 0 0 0 0 0 0 0 
0 0 0 0 1.08035e-09 0 0 2.18915e-08 7.53087e-06 
3.14729e-06 8.61574e-06 0 0 0 0 0 0 0 
0 2.70617e-10 0 0 0 0 0 0 0 
3.23236e-08 0 0 0 0 0 0 0 0 
0 0 0 0 0 0 0 0 0 
0 0 0 0 0 0 0 0 0 
0 0 6.97141e-06 0 0 7.64652e-06 0 0 0 
6.90771e-06 0 0 0 1.86769e-08 0 0 0 0 
0 0 0 0 6.76948e-06 3.28619e-08 0 0 0 
0 0 0 4.83e-10 0 0 0 0 0 
0 0 0 0 0 0 0 0 6.72136e-08 
0 0 0 0 0 0 0 0 0 
0 0 0 0 0 0 0 7.05571e-06 0 
6.7037e-06 0 0 0 6.79695e-06 0 1.17662e-09 0 0 
0 0 0 0 0 0 0 0 0 
0 0 0 0 0 0 0 0 0 
6.88055e-06 0 0 0 6.87734e-06 0 0 0 0 
0 0 0 0 0 0 0 0 0 
0 0 0 2.5131e-08 0 0 0 0 0 
0 0 7.44858e-10 5.94452e-10 0 0 0 0 0 
0 0 0 0 0 0 0 0 0 
0 0 0 0 0 0 0 8.17895e-06 0 
0 0 0 3.48513e-09 0 0 0 0 0 
0 0 0 0 0 0 0 0 0 
0 0 2.93039e-08 6.81608e-06 1.35466e-08 0 0 0 0 
0 0 0 0 0 2.50822e-12 0 0 0 
0 0 0 0 0 0 0 0 0 
0 0 0 8.0571e-06 0 0 0 0 0 
0 0 0 6.79427e-06 1.26584e-09 0 0 0 0 
0 0 0 0 0 0 0 0 0 
0 0 0 0 0 0 0 0 0 
0 0 0 0 0 0 0 0 0 
0 0 0 0 0 0 0 0 0 
0 5.5822e-10 0 0 0 0 0 1.18532e-09 0 
0 0 5.97279e-10 0 0 0 0 0 0 
4.84377e-08 0 0 0 0 0 0 0 1.21015e-09 
7.23283e-06 0 0 0 0 0 0 0 0 
0 0 8.3817e-10 0 0 0 0 0 0 
0 0 0 0 0 0 0 6.78337e-06 6.9409e-10 
1.13435e-08 0 2.02883e-10 0 0 0 0 0 0 
0 0 0 0 3.2149e-08 6.78042e-06 4.34151e-08 0 0 
0 0 0 0 7.18674e-06 0 1.0563e-07 6.88668e-06 0 
0 0 0 0 0 0 0 0 0 
0 0 0 0 0 0 0 0 0 
0 0 0 0 0 0 0 4.01351e-08 6.88319e-06 
4.05587e-08 0 0 0 0 0 3.59766e-08 0 0 
0 0 0 0 0 0 0 3.80338e-10 0 
5.36366e-10 0 1.57192e-08 0 0 0 0 0 0 
0 0 0 0 0 0 0 0 0 
7.54813e-10 0 0 6.77701e-06 0 0 0 0 0 
0 0 0 0 0 0 0 0 0 
0 0 6.96489e-06 4.59171e-08 0 0 0 0 0 
0 1.10013e-09 0 0 0 0 0 0 0 
0 0 0 0 0 0 0 0 0 
0 0 0 0 0 0 0 0 0 
0 0 0 0 0 0 0 8.03164e-06 4.79579e-10 
0 8.04548e-10 2.26752e-11 0 8.02698e-06 8.10484e-06 0 0 0 
6.989e-06 0 0 0 0 0 0 0 0 
0 0 0 0 0 0 0 0 0 
0 0 0 0 0 0 0 0 0 
0 0 9.42702e-10 0 0 0 4.98513e-10 0 0 
4.09059e-10 0 0 0 0 0 0 4.57334e-10 0 
0 0 0 0 3.76977e-08 0 5.42997e-10 0 0 
0 0 0 0 5.21091e-10 1.20522e-09 0 0 0 
0 0 0 0 0 0 0 0 0 
0 0 0 0 0 0 0 0 0 
0 0 1.70561e-08 0 0 0 3.56261e-10 0 0 
0 0 0 0 0 0 0 0 0 
8.44007e-06 0 8.28785e-08 7.21728e-06 0 0 0 0 0 
0 0 0 5.65663e-10 0 0 0 0 0 
0 0 0 0 0 0 0 0 0 
0 0 0 0 0 2.26898e-08 6.80343e-06 0 0 
7.00169e-06 0 0 0 0 0 0 0 0 
0 7.145e-10 0 0 5.70973e-10 8.84637e-06 0 7.48853e-06 0 
0 0 0 0 4.23963e-10 0 0 0 1.16214e-08 
2.79951e-08 0 0 0 1.45032e-08 0 0 0 0 
0 0 0 0 0 5.10131e-10 0 0 3.81643e-10 
0 0 0 0 0 5.43992e-08 0 0 0 
0 0 0 5.22007e-10 0 0 0 6.84202e-06 0 
0 0 0 0 0 0 0 0 0 
0 8.17717e-06 0 0 0 6.91134e-06 0 0 6.8829e-06 
1.20635e-09 0 0 0 1.87732e-10 6.65967e-10 0 5.14621e-10 0 
0 0 0 0 1.23599e-09 6.00203e-10 0 0 0 
2.77565e-08 6.97906e-06 0 0 0 0 0 0 0 
0 0 0 0 0 0 0 0 0 
3.55669e-08 0 0 0 7.05622e-06 0 8.4204e-06 0 7.14806e-06 
0 0 0 0 0 0 0 0 0 
0 0 0 0 0 0 0 0 0 
0 0 0 0 0 0 0 0 0 
0 0 0 0 0 8.50722e-10 0 0 0 
0 0 0 0 0 6.79336e-06 2.29358e-08 0 0 
6.29872e-08 0 4.31778e-08 0 0 0 0 3.10794e-08 6.87165e-06 
0 0 0 0 0 0 8.58215e-10 0 0 
0 0 0 0 0 0 0 0 0 
0 0 0 0 4.46157e-10 0 0 0 0 
0 0 0 0 1.15737e-10 0 0 0 0 
0 0 0 0 0 0 0 0 0 
0 0 0 0 0 0 0 0 0 
0 0 0 0 0 0 0 0 0 
0 0 0 0 0 0 0 0 0 
0 0 0 0 0 0 0 0 0 
0 0 0 0 0 0 1.98765e-08 0 0 
0 2.42294e-10 0 0 0 0 0 0 0 
0 0 0 0 0 0 0 0 0 
0 0 0 0 0 0 0 9.16273e-10 0 
0 0 0 0 0 0 0 0 0 
0 0 0 0 0 0 0 0 0 
0 0 0 0 0 0 0 0 0 
0 0 0 0 0 6.40298e-09 0 8.6634e-10 0 
0 0 0 0 0 0 0 0 0 
0 0 0 0 0 0 0 0 0 
0 0 0 0 0 0 0 0 0 
0 0 0 0 0 0 0 0 0 
0 0 0 0 0 0 0 0 0 
0 0 0 6.86622e-10 0 0 0 0 0 
0 0 0 0 0 0 0 0 0 
0 0 0 0 0 0 0 0 0 
0 0 0 0 0 0 0 0 0 
0 0 0 0 0 0 8.29104e-10 0 7.16053e-10 
0 0 0 0 0 0 0 0 0 
0 0 0 0 0 0 0 0 0 
0 0 0 0 0 1.83597e-10 0 0 0 
0 4.77559e-10 0 0 0 0 0 0 0 
0 0 0 1.94426e-10 0 0 0 0 0 
0 0 0 0 0 0 0 0 0 
0 0 0 0 0 0 0 0 0 
0 0 0 0 0 0 0 0 0 
0 0 0 0 0 2.0934e-10 0 0 0 
0 0 0 0 0 0 0 0 4.39462e-10 
0 0 0 0 0 0 0 0 0 
0 0 0 0 0 0 0 0 0 
0 0 0 0 0 0 0 
feature_2 1 2500 float
0 0 0 0 0 0 0 0 0 
0 0 0 0 0 0 0 0 1.44944e-10 
0 0 0 0 0 0 0 0 0 
0 0 0 0 0 0 0 0 0 
0 0 0 0 0 0 0 0 0 
0 0 0 8.20842e-10 0 0 0 0 0 
0 0 0 0 0 1.10647e-09 3.92877e-10 0 0 
0 0 0 0 0 0 0 0 0 
0 0 0 0 0 0 0 0 0 
0 0 0 0 0 0 5.08329e-10 0 0 
0 0 0 3.36293e-10 0 0 0 0 0 
2.68881e-08 0 0 0 0 0 0 0 0 
0 0 0 0 0 0 0 0 0 
0 0 0 0 0 0 0 0 0 
0 0 0 0 0 0 0 0 0 
2.83418e-10 0 0 0 0 0 0 0 0 
0 0 0 0 0 0 0 0 0 
0 0 0 0 0 0 0 0 0 
0 0 0 0 0 0 0 0 0 
0 0 0 0 0 0 0 0 0 
0 0 4.31877e-10 0 0 0 0 0 0 
0 9.39977e-11 0 0 0 0 0 7.99353e-10 0 
0 0 0 0 0 0 0 0 0 
0 0 0 0 0 0 0 0 0 
0 0 0 0 0 0 0 0 0 
0 0 6.93976e-10 4.80405e-10 0 0 0 0 0 
0 9.10976e-10 0 0 0 0 0 0 0 
0 0 1.40645e-08 0 0 0 0 0 0 
0 0 0 0 0 0 0 0 0 
0 0 0 0 1.13399e-09 0 0 0 0 
0 0 0 0 0 0 0 0 0 
0 0 8.56598e-10 0 0 0 0 0 0 
0 0 0 0 0 0 0 0 0 
0 0 0 0 0 0 0 0 0 
0 0 0 0 0 0 0 0 0 
0 0 0 0 0 0 0 3.53591e-10 0 
0 0 0 0 0 0 0 0 0 
0 0 1.12083e-08 0 0 0 0 0 0 
0 0 0 0 0 0 0 0 0 
0 0 0 0 0 0 0 2.86271e-10 0 
0 0 0 0 0 0 0 0 0 
0 0 0 0 0 0 0 0 0 
0 0 0 0 0 0 0 0 0 
0 0 0 0 0 0 7.97588e-10 3.79174e-10 0 
0 0 0 0 0 0 1.74267e-08 0 0 
0 0 0 9.49433e-08 0 0 4.41464e-10 0 0 
0 0 0 0 0 0 0 0 0 
0 0 0 0 0 0 0 0 0 
0 0 0 0 0 0 0 0 0 
0 0 0 0 0 0 0 0 0 
0 0 0 0 0 0 0 0 0 
0 0 0 0 0 0 0 0 0 
0 0 0 0 0 0 0 0 0 
0 0 0 0 0 0 0 0 0 
0 0 0 0 0 0 0 0 0 
0 0 1.46862e-10 0 0 0 0 0 0 
0 0 0 0 0 0 0 0 0 
0 0 0 0 0 0 0 1.01457e-09 0 
0 0 0 0 0 0 0 0 0 
0 0 0 0 0 0 0 0 0 
0 0 0 0 0 0 0 0 0 
0 0 0 0 0 0 0 0 0 
1.22708e-09 0 0 0 0 0 0 0 0 
0 0 0 0 0 0 0 0 0 
0 0 0 0 0 0 0 0 0 
0 0 1.06218e-09 0 0 0 0 0 0 
0 0 0 0 0 0 0 0 0 
0 0 0 0 0 0 0 2.45153e-10 0 
0 0 0 0 0 0 0 0 0 
0 0 0 0 0 0 0 0 0 
0 0 0 0 0 0 0 0 0 
0 0 0 0 0 0 0 0 0 
0 0 0 0 0 0 0 0 0 
0 0 0 0 0 0 0 6.52088e-10 0 
8.84786e-11 6.94936e-10 0 0 0 7.37922e-10 0 0 0 
0 0 8.24166e-10 0 0 0 0 0 0 
0 0 0 0 0 0 0 0 0 
0 0 0 8.42459e-10 0 0 0 0 0 
0 0 0 0 0 0 1.58883e-09 0 8.68745e-10 
0 0 0 0 0 0 0 0 0 
0 0 6.32937e-10 0 0 0 0 0 0 
0 0 0 0 0 0 0 0 8.02364e-10 
0 0 0 0 0 0 0 0 0 
0 0 0 0 0 0 0 0 0 
7.54095e-10 0 0 0 0 0 0 6.81654e-07 3.24031e-07 
0 0 0 0 0 0 0 0 0 
0 0 0 0 0 0 0 0 0 
0 0 0 2.7482e-11 0 0 0 0 0 
0 0 0 0 0 0 0 0 0 
0 0 0 0 0 0 0 0 0 
0 0 0 1.19279e-07 0 0 0 0 0 
0 1.09743e-10 0 0 0 0 0 0 0 
0 0 0 0 0 0 0 0 0 
0 0 0 0 0 0 0 6.21313e-10 0 
0 0 0 6.05745e-10 0 0 0 0 0 
0 0 0 8.64139e-10 0 0 0 0 0 
0 0 0 0 0 0 0 0 4.5692e-10 
0 0 0 0 0 0 0 0 0 
0 0 0 0 0 0 5.93143e-10 0 0 
0 0 0 0 0 0 0 0 0 
0 0 0 0 0 1.10473e-09 0 0 0 
0 0 1.02806e-09 0 0 0 1.00019e-09 0 0 
0 0 0 0 0 0 0 0 0 
0 8.02729e-10 4.17234e-10 0 5.40606e-10 0 0 0 0 
0 0 0 0 0 6.41247e-10 0 0 0 
0 0 0 0 0 0 0 0 0 
0 0 0 5.04016e-10 0 0 0 0 0 
0 0 0 0 0 0 0 0 0 
0 0 0 0 0 0 0 0 0 
0 0 0 0 0 0 0 0 0 
0 0 0 0 0 0 0 0 0 
0 0 0 0 0 0 0 0 0 
0 0 0 0 0 0 0 0 0 
0 0 0 0 0 0 0 0 0 
0 0 0 3.56113e-10 0 0 0 0 0 
0 0 0 0 0 0 0 0 0 
0 0 0 0 0 3.4202e-10 0 0 0 
0 0 0 0 0 0 0 0 0 
0 0 0 0 0 0 0 0 0 
0 0 0 0 0 0 0 0 0 
0 5.0593e-10 0 0 0 0 0 0 0 
0 0 0 0 3.12239e-10 0 0 0 0 
0 0 0 0 0 0 0 0 0 
0 0 0 0 0 0 0 0 0 
0 0 0 0 5.78584e-10 0 0 0 0 
0 0 0 0 0 0 0 0 0 
0 0 0 0 0 0 0 0 0 
0 0 0 1.19702e-09 0 0 0 0 0 
0 0 0 0 0 0 0 0 0 
0 0 0 0 0 0 0 7.11253e-10 0 
0 0 0 0 0 0 0 0 0 
0 0 0 0 0 0 0 0 0 
0 0 0 0 0 0 0 5.71113e-10 0 
0 0 0 0 4.73406e-10 0 0 0 0 
0 0 0 0 0 0 0 2.14138e-09 0 
4.25889e-10 0 0 0 0 0 0 0 0 
0 0 0 0 0 0 0 0 0 
0 0 0 0 0 0 0 0 9.18035e-10 
0 0 0 0 0 0 0 0 0 
0 0 0 0 0 2.61469e-10 0 0 0 
0 0 0 0 0 0 0 0 0 
0 0 0 0 5.49942e-10 0 0 0 3.59805e-10 
0 0 0 0 0 0 0 0 0 
0 0 0 0 0 0 0 0 0 
0 0 0 0 0 0 0 0 0 
0 0 0 0 0 0 0 0 0 
0 2.26158e-08 0 1.22581e-09 0 0 7.45253e-10 0 0 
0 0 0 0 0 0 0 0 0 
0 0 0 0 0 0 0 0 0 
0 0 0 5.97357e-10 0 0 0 0 0 
0 0 0 0 0 0 0 0 0 
0 7.65255e-12 0 0 0 0 0 4.46256e-10 0 
0 0 0 0 0 1.78987e-08 0 0 0 
0 0 0 0 0 0 0 0 0 
0 0 0 1.10564e-09 0 0 0 3.41207e-10 1.18106e-08 
0 0 0 0 0 0 0 0 0 
0 0 0 0 0 0 0 0 0 
0 0 0 0 0 0 0 0 0 
0 0 0 0 0 0 0 0 0 
0 0 0 0 0 0 0 0 0 
0 0 0 0 0 0 0 0 0 
0 0 0 0 0 1.26546e-10 0 0 0 
8.19099e-10 0 0 0 0 0 0 0 0 
0 0 0 0 0 0 0 0 0 
0 0 0 0 0 0 0 0 0 
0 7.25237e-10 0 0 0 0 0 0 0 
0 0 0 0 0 0 0 0 0 
0 0 0 0 0 0 0 0 0 
0 0 0 0 0 0 0 0 0 
0 0 0 0 0 0 0 0 3.80702e-10 
0 0 0 0 0 0 0 0 0 
0 0 0 0 0 1.04895e-09 0 0 0 
0 0 0 0 0 0 0 1.00457e-09 0 
0 0 0 0 0 0 0 0 0 
0 0 2.13923e-10 0 0 0 0 0 0 
0 0 0 0 0 0 0 0 0 
0 0 0 0 0 0 0 0 0 
0 0 0 0 0 0 0 0 0 
0 0 0 0 0 0 0 0 0 
0 0 0 0 0 0 0 8.51408e-10 6.49187e-11 
0 0 0 3.52134e-10 0 0 0 0 0 
0 0 0 0 0 0 0 0 0 
0 0 0 0 0 0 0 0 5.93484e-10 
0 0 6.59229e-10 9.10745e-10 0 1.37305e-09 0 0 0 
0 0 0 0 0 0 0 0 0 
0 0 7.47406e-10 0 0 0 0 0 0 
0 0 0 0 0 0 0 0 0 
0 0 0 0 0 0 0 0 0 
0 0 0 0 0 0 0 0 0 
0 0 0 0 0 0 0 0 0 
0 0 0 0 0 0 0 0 0 
7.84734e-10 0 0 0 0 0 0 0 0 
8.77714e-10 0 0 0 0 0 0 0 0 
0 0 0 0 0 0 0 0 0 
0 0 0 0 0 0 0 0 0 
0 0 0 0 0 0 0 0 0 
0 0 0 0 0 0 0 0 0 
3.39211e-10 0 0 0 0 1.09349e-09 0 0 0 
0 0 0 0 0 0 7.484e-10 4.84551e-10 0 
0 0 0 0 0 0 0 0 0 
0 8.03102e-10 0 0 0 0 0 0 0 
0 5.89122e-10 0 0 0 0 0 0 0 
0 5.79451e-10 0 0 0 0 0 0 0 
0 0 0 0 0 0 0 0 0 
0 0 0 0 0 0 0 2.09205e-10 0 
8.4032e-10 0 0 0 0 0 0 0 0 
0 6.15488e-10 0 0 0 0 0 0 0 
0 0 0 0 0 0 0 0 0 
0 0 0 3.57261e-10 0 0 0 0 0 
0 0 0 0 0 0 0 0 0 
0 0 0 0 0 0 0 0 0 
1.67136e-09 0 0 0 0 0 0 0 0 
0 0 0 0 0 0 0 0 0 
0 0 0 0 0 0 0 0 0 
6.93515e-10 7.30818e-10 0 0 0 0 0 0 0 
0 0 0 0 0 0 0 0 0 
0 0 0 3.34805e-08 0 0 0 0 1.35288e-08 
0 0 0 0 0 0 0 0 0 
2.05365e-09 0 0 0 0 0 0 0 0 
0 0 0 0 0 0 0 0 7.63904e-10 
0 0 0 0 0 0 0 0 0 
0 0 0 0 0 0 0 0 0 
0 0 0 0 0 0 0 0 0 
0 0 0 0 0 0 0 0 0 
0 0 0 0 0 0 0 0 7.42443e-10 
9.89768e-10 0 0 0 0 0 0 0 0 
0 0 0 0 0 0 0 0 0 
0 1e-09 0 2.29415e-09 1.86265e-08 0 0 0 0 
0 0 0 9.54589e-10 0 0 0 0 0 
0 0 0 0 0 0 0 0 4.61025e-10 
0 0 1.14234e-08 0 0 0 0 0 0 
0 0 0 0 0 0 0 0 0 
0 0 0 0 0 6.57884e-10 0 0 0 
0 0 0 0 0 0 0 0 2.38208e-08 
0 0 0 0 0 0 0 0 0 
0 0 0 0 7.02169e-10 0 0 0 0 
0 0 0 0 0 0 0 0 0 
0 0 0 0 0 0 0 0 0 
0 0 0 8.67516e-10 0 0 0 6.21924e-10 0 
0 0 0 0 0 0 0 0 0 
0 0 0 0 0 0 0 4.3201e-11 0 
0 0 0 0 0 3.57595e-10 0 0 0 
0 0 0 0 0 0 0 0 0 
0 1.29145e-09 0 0 0 0 0 0 0 
0 0 0 0 0 0 0 0 0 
0 0 0 0 0 0 0 0 0 
0 0 0 0 0 0 0 0 0 
0 0 0 4.63398e-10 0 0 0 0 0 
0 0 0 3.567e-09 0 0 0 1.98511e-10 0 
0 0 0 0 0 0 0 0 0 
0 0 0 0 0 0 0 1.66683e-08 0 
0 0 0 0 0 0 0 0 0 
0 0 0 0 0 0 7.51452e-11 0 0 
0 0 0 0 0 0 0 0 0 
0 0 0 0 0 0 5.56994e-10 0 0 
0 0 0 0 0 0 0 0 0 
0 0 0 3.30488e-10 0 0 0 0 0 
0 0 0 0 0 0 0 0 0 
0 0 0 0 0 0 0 6.65699e-10 0 
0 0 0 0 0 0 0 0 0 
0 8.01126e-10 0 0 0 0 0 0 0 
0 0 4.3525e-10 6.78261e-10 0 0 0 0 0 
0 0 3.99094e-10 0 2.88263e-08 0 0 0 0 
0 0 0 0 0 0 0 0 0 
0 0 0 0 0 0 0 0 0 
0 0 0 0 0 0 0 6.22844e-10 0 
0 0 0 2.18918e-09 0 0 0 0 0 
0 0 0 0 0 0 0 4.71928e-10 0 
0 0 1.76116e-10 0 0 0 0 0 0 
0 0 1.92378e-09 0 0 0 0 0 2.13282e-08 
0 0 0 0 1.84489e-10 0 0 0 0 
0 0 0 0 0 0 0 0 0 
5.72534e-10 0 0 0 0 0 0 0 0 
0 0 0 0 0 0 0 0 0 
0 0 0 0 0 0 0 0 0 
6.58051e-10 0 0 0 6.85038e-10 0 0 0 0 
0 2.92587e-10 0 0 0 0 0 0 0 
0 0 0 0 0 0 0 
feature_3 1 2500 float
0 0 0 0 0 0 0 0 0 
0 0 0 0 0 4.22331e-10 0 0 0 
0 0 0 0 0 0 0 0 6.95699e-10 
0 0 0 0 0 0 0 0 0 
0 0 0 0 0 0 0 0 0 
0 0 0 0 0 6.24748e-10 0 0 0 
0 0 0 0 0 0 0 0 0 
1.23233e-09 0 0 0 0 0 0 0 0 
0 0 0 0 0 0 0 0 0 
0 0 0 0 0 0 0 0 0 
0 0 0 0 0 0 0 0 0 
0 0 0 0 0 0 0 0 0 
0 0 0 0 0 0 0 8.71673e-10 0 
0 0 0 1.02291e-09 0 0 6.41737e-10 0 0 
0 0 0 0 0 0 0 0 0 
0 0 0 7.73561e-10 0 0 0 0 0 
0 0 0 0 0 0 0 0 0 
0 0 0 0 0 0 0 0 0 
0 0 0 0 8.93204e-09 0 0 0 3.08926e-10 
0 0 0 0 0 0 0 0 0 
0 0 0 0 0 0 0 0 0 
0 0 0 0 0 0 0 0 0 
0 7.94387e-10 0 0 0 0 0 0 0 
0 0 0 0 0 0 0 0 0 
0 0 0 0 0 0 0 0 0 
0 0 0 0 0 0 0 0 0 
3.01913e-10 0 0 0 0 0 0 0 4.78671e-10 
7.19233e-10 0 0 0 0 0 5.94117e-10 0 0 
0 0 5.65123e-10 0 0 0 0 0 0 
0 0 0 0 0 0 0 0 5.56617e-11 
0 0 0 0 0 0 0 0 1.0542e-09 
0 0 0 0 0 0 0 0 0 
0 0 0 0 0 0 0 0 0 
0 0 0 0 0 0 0 0 0 
0 0 0 0 0 0 0 0 0 
0 0 0 0 0 0 0 0 0 
0 0 0 0 3.86621e-10 0 0 0 0 
0 0 0 0 0 0 0 0 0 
0 0 0 0 0 0 0 0 0 
0 0 0 0 7.87804e-10 0 0 0 0 
0 0 0 0 0 0 0 0 0 
0 0 0 0 0 0 0 0 0 
0 0 0 0 0 0 0 0 0 
0 0 0 0 0 0 0 0 0 
0 0 0 8.10122e-10 0 0 0 0 4.62066e-10 
0 0 0 0 0 0 0 0 0 
0 0 0 0 0 0 0 0 0 
1.7976e-10 0 0 0 0 0 0 0 0 
0 0 0 0 0 0 0 0 0 
0 0 0 0 0 0 0 0 0 
1.71276e-10 0 0 0 0 0 0 0 0 
0 0 0 0 0 0 0 0 0 
0 0 0 0 0 0 0 0 1.03533e-10 
0 0 0 0 0 0 0 0 0 
0 0 0 0 0 0 0 0 0 
0 0 0 0 0 0 0 0 0 
0 0 0 0 0 0 0 0 0 
0 0 0 0 0 0 0 0 9.79021e-11 
0 0 0 0 0 0 0 0 0 
0 0 0 0 0 0 0 0 0 
0 0 0 0 9.71191e-10 0 0 6.2486e-10 0 
0 0 0 0 0 0 0 0 0 
0 0 0 0 0 0 0 0 0 
0 0 0 0 0 0 0 0 0 
0 0 0 0 0 0 0 0 0 
0 0 0 0 0 0 0 0 0 
0 0 0 0 0 0 0 0 0 
0 0 0 0 0 0 0 0 0 
0 0 0 0 0 0 0 0 0 
0 0 0 0 0 0 0 0 0 
0 0 0 0 0 0 0 0 0 
0 0 0 0 0 0 0 0 0 
0 0 0 4.41997e-10 0 0 0 0 0 
0 0 0 0 0 0 0 0 0 
5.89658e-10 0 0 0 0 0 0 0 0 
0 0 0 0 0 0 0 0 0 
0 1.25269e-11 0 0 0 0 8.81538e-10 0 0 
0 0 0 0 0 0 0 7.97552e-10 0 
0 0 0 0 0 0 0 0 0 
8.17771e-10 0 0 0 0 0 0 0 0 
0 0 0 0 0 5.6513e-11 0 0 0 
0 0 0 0 0 0 0 0 0 
0 0 0 0 2.77666e-10 0 0 0 0 
0 0 0 0 0 0 0 0 0 
0 0 0 0 0 0 0 0 0 
0 0 0 9.04848e-10 0 0 0 0 0 
0 0 0 0 0 0 0 0 0 
0 0 0 0 0 0 0 0 0 
3.46063e-10 0 0 0 0 0 0 0 0 
0 0 0 0 0 0 0 0 0 
0 0 0 0 0 0 0 0 0 
0 0 0 0 0 0 0 0 0 
0 0 0 0 0 0 0 0 0 
0 0 0 0 0 0 0 0 5.67479e-10 
0 1.14286e-09 0 0 0 0 0 0 5.72236e-11 
0 0 0 1.98165e-10 0 0 0 0 0 
0 0 0 0 0 0 0 0 0 
0 0 0 0 0 0 0 0 0 
0 0 0 0 1.01914e-07 0 0 0 0 
0 0 0 0 0 0 0 0 0 
0 0 0 0 0 0 0 0 0 
0 0 0 0 0 0 0 0 0 
0 0 6.31175e-10 0 0 0 3.87274e-10 0 0 
0 0 0 0 0 0 0 0 0 
0 0 0 0 0 0 0 0 0 
0 9.26558e-10 0 0 0 0 0 0 0 
2.49379e-10 8.80096e-11 0 0 0 0 0 0 0 
0 0 0 0 0 0 0 0 0 
0 0 0 0 0 2.13518e-10 0 0 0 
0 0 0 0 0 0 0 0 0 
0 0 0 0 0 0 0 0 0 
1.04626e-09 0 0 0 0 4.32621e-10 0 0 0 
0 0 0 0 0 0 0 0 0 
2.9474e-10 0 0 0 0 0 0 0 0 
0 0 0 0 0 0 0 0 0 
0 0 0 0 0 0 0 0 0 
0 0 0 0 0 0 0 0 0 
4.68042e-10 0 0 0 0 0 0 0 0 
0 0 0 0 0 0 0 0 0 
0 0 0 0 0 0 0 0 0 
0 0 0 0 0 0 0 0 0 
0 0 0 0 0 0 7.89623e-10 6.81261e-10 0 
0 0 2.92542e-08 0 0 0 0 0 0 
0 0 0 0 0 0 6.02922e-10 0 0 
0 0 0 0 1.92948e-09 0 0 0 0 
0 0 5.56509e-09 0 0 0 0 0 0 
0 0 0 0 0 0 0 0 0 
0 0 0 0 0 0 0 0 9.01906e-10 
0 6.27729e-10 0 0 0 0 0 0 0 
0 0 0 0 0 0 0 0 7.30086e-10 
0 0 0 0 1.65201e-10 0 0 0 0 
0 0 0 0 0 0 0 0 0 
0 0 0 0 0 0 0 0 0 
0 0 0 0 0 0 0 0 0 
0 0 0 3.78854e-10 0 0 0 0 0 
0 0 0 0 0 0 0 0 0 
0 0 0 0 0 0 0 0 0 
0 0 0 0 0 0 0 0 0 
0 0 0 0 0 0 0 0 8.52083e-10 
0 0 0 0 0 0 0 0 0 
0 0 0 0 0 0 0 0 0 
0 0 0 0 0 0 0 0 0 
2.71888e-10 0 0 0 0 0 0 0 0 
0 0 0 0 0 0 0 0 0 
0 0 0 0 8.77385e-10 2.0164e-08 0 0 2.26587e-08 
0 0 0 0 0 0 0 6.88342e-10 0 
0 1.60899e-08 0 0 0 0 0 0 0 
0 8.63835e-10 0 0 0 0 0 0 0 
0 0 0 0 0 0 0 0 0 
0 0 0 0 0 0 0 0 0 
0 0 0 0 0 0 0 0 2.14051e-10 
0 0 0 0 0 2.87343e-10 0 0 0 
0 0 0 0 0 0 0 0 0 
0 0 0 0 0 1.07701e-10 0 0 0 
0 0 0 0 0 0 0 0 0 
0 8.03173e-10 0 0 0 0 0 0 0 
0 0 0 0 0 0 0 0 0 
0 0 0 0 0 0 0 0 0 
0 0 0 0 0 0 0 0 8.58957e-11 
0 0 0 0 0 0 0 0 0 
0 0 0 0 0 0 0 0 0 
1.34009e-10 0 0 0 0 0 0 0 0 
0 0 6.05242e-10 0 0 0 1.95289e-10 0 0 
0 0 0 0 0 0 0 0 0 
0 0 0 0 0 0 0 0 0 
0 0 0 0 0 0 0 0 0 
0 0 0 0 0 0 0 0 0 
0 0 0 0 3.72748e-11 0 0 7.16614e-10 0 
0 0 0 0 0 0 0 0 0 
0 0 0 0 0 0 0 0 0 
0 0 0 0 0 0 0 0 0 
0 0 0 0 0 0 0 0 0 
0 1.30254e-10 0 0 0 0 0 0 0 
0 0 0 1.12302e-09 0 0 0 0 0 
0 0 0 0 0 0 0 0 0 
0 0 0 0 0 0 0 0 0 
0 0 0 0 0 0 0 0 0 
0 0 0 0 0 0 0 0 0 
0 0 0 0 7.99254e-11 0 0 0 0 
0 2.48466e-10 0 0 0 0 0 0 0 
0 0 0 0 4.33833e-10 8.57998e-10 0 0 0 
0 3.80055e-10 0 0 0 0 0 0 0 
0 0 0 0 0 0 0 0 0 
0 0 0 0 0 0 0 0 0 
0 0 0 0 0 0 0 0 0 
5.67089e-10 0 6.52964e-10 0 0 0 0 0 0 
0 2.28848e-10 0 0 0 0 0 0 0 
0 0 0 0 0 0 0 0 0 
0 0 0 4.21363e-10 0 0 0 0 0 
0 0 0 0 0 0 0 0 0 
0 0 0 0 0 0 0 2.34637e-10 0 
0 0 0 0 0 0 0 0 0 
0 0 0 5.30718e-10 0 0 0 0 0 
0 0 0 0 0 0 0 0 0 
0 0 0 0 0 0 0 0 0 
0 0 0 0 1.35885e-09 0 0 0 0 
0 0 0 0 0 0 0 8.78707e-10 0 
0 0 8.4237e-10 0 0 0 0 0 0 
2.80191e-08 0 0 0 0 0 0 3.03668e-10 0 
0 0 0 6.33904e-10 0 0 0 0 0 
1.52771e-08 0 0 0 0 0 0 0 0 
0 0 0 0 0 0 0 0 0 
0 0 0 3.0567e-10 0 0 0 0 7.94206e-10 
0 0 0 0 0 0 0 0 0 
0 0 0 0 0 0 0 0 0 
0 0 0 0 0 0 0 0 0 
0 0 0 0 0 5.35049e-10 0 0 0 
0 0 0 0 0 0 0 0 0 
0 0 0 3.21421e-10 0 0 0 0 0 
0 0 0 0 0 0 0 0 0 
0 0 0 0 0 0 0 0 0 
0 0 0 0 0 0 0 0 0 
0 0 0 0 0 0 0 0 0 
0 0 0 0 0 0 0 0 0 
0 0 0 0 0 0 0 0 0 
0 0 0 0 0 7.12973e-10 0 0 0 
0 0 0 0 0 0 0 0 0 
0 0 0 0 0 8.54623e-11 0 0 0 
0 0 0 0 0 0 0 0 0 
0 0 0 0 0 0 0 0 0 
0 0 0 0 0 0 0 0 0 
0 0 0 0 0 0 0 1.12111e-09 0 
0 0 0 2.67367e-10 0 0 0 0 0 
0 0 0 0 0 0 0 0 3.40501e-10 
0 0 0 0 0 0 0 0 0 
0 0 0 0 0 0 0 0 1.27763e-09 
0 0 0 0 0 0 0 0 0 
0 0 2.81524e-10 0 0 0 0 0 0 
0 0 0 0 0 0 0 0 0 
4.19266e-10 0 0 0 0 0 0 0 0 
0 7.72712e-10 0 0 0 4.71808e-10 0 0 0 
0 0 0 0 0 0 0 0 0 
6.77773e-10 0 0 0 0 3.15836e-10 0 0 0 
0 0 0 0 0 0 0 0 0 
0 0 0 0 0 0 0 0 0 
0 0 0 0 0 0 0 0 0 
0 0 0 0 0 0 0 0 0 
0 0 0 0 0 0 0 0 0 
0 0 0 0 0 0 0 0 0 
0 9.53623e-10 0 0 0 0 0 0 0 
0 0 0 0 0 0 0 7.78577e-10 0 
0 1.8942e-10 0 0 0 0 0 0 6.75509e-10 
0 0 0 0 0 0 0 0 0 
0 0 0 0 0 0 0 0 0 
0 0 0 0 0 0 0 0 0 
0 0 0 0 0 0 0 0 5.95684e-10 
0 0 0 0 0 0 0 0 0 
0 0 6.8993e-10 0 0 0 0 0 0 
0 0 0 0 0 0 0 0 0 
0 0 0 0 0 0 0 0 0 
1.36844e-08 0 0 0 0 0 0 0 0 
0 0 0 0 0 0 0 0 0 
0 0 0 0 0 0 0 0 0 
0 0 0 0 0 0 0 0 0 
0 0 0 0 0 0 0 0 0 
0 0 0 0 0 0 0 0 0 
0 0 0 0 0 0 0 0 0 
0 0 6.66006e-10 0 0 0 0 0 0 
0 0 0 0 0 0 0 0 0 
0 0 0 0 0 0 0 0 0 
0 0 0 0 0 0 0 0 0 
0 0 0 0 0 0 0 0 0 
0 0 0 0 0 0 0 0 6.99661e-10 
0 0 4.4313e-10 0 0 0 0 0 0 
0 0 0 0 0 0 0 0 0 
0 0 0 0 0 0 0 0 0 
0 0 0 0 0 0 0 0 0 
0 0 0 0 0 0 0 0 0 
0 0 0 0 0 0 0 0 0 
0 0 0 0 0 0 0 0 0 
3.39281e-10 0 0 0 0 0 0 0 0 
0 0 6.68663e-10 0 0 0 0 0 0 
0 8.1921e-10 0 0 0 0 0 0 0 
0 0 0 0 0 0 0 0 0 
0 0 0 0 0 0 0 8.12133e-10 0 
0 2.13734e-08 4.08818e-10 0 0 1.15904e-10 0 0 0 
0 0 0 0 0 0 0 0 0 
0 0 0 0 0 0 0 
feature_4 1 2500 float
0 0 0 0 0 0 0 0 0 
0 7.23801e-10 0 9.55058e-10 0 0 0 0 0 
0 0 0 4.2407e-10 0 0 4.85723e-10 0 0 
0 0 0 0 0 0 0 0 0 
0 0 0 0 0 0 0 0 0 
0 0 0 0 0 0 4.0167e-11 0 0 
0 0 0 0 0 0 0 0 0 
0 0 0 0 0 0 0 0 0 
0 0 0 3.52429e-11 0 0 0 0 0 
0 0 0 0 0 0 0 0 0 
0 0 0 0 0 0 0 0 0 
0 0 1.14342e-09 0 0 0 0 0 0 
0 0 0 0 0 0 0 0 0 
0 0 0 0 0 0 0 0 0 
0 1.57723e-10 0 0 0 0 0 0 6.81126e-10 
0 0 0 0 0 0 0 0 0 
0 4.13134e-10 0 0 0 8.76966e-10 7.12088e-10 0 0 
0 0 0 0 0 0 0 0 0 
0 0 0 0 0 0 0 0 0 
0 0 0 0 0 0 0 0 0 
0 0 0 0 0 4.71985e-10 0 0 0 
0 0 0 0 0 0 0 0 0 
0 0 0 0 0 0 0 0 0 
0 0 0 0 0 0 0 0 0 
0 0 0 0 0 0 0 0 0 
0 0 0 0 0 0 0 0 0 
0 0 0 0 0 1.67897e-10 0 0 0 
2.49972e-10 0 0 0 0 0 0 0 0 
0 0 0 0 0 0 0 0 0 
0 0 0 0 0 0 0 0 0 
0 0 0 0 0 0 0 0 0 
0 0 7.32523e-10 0 0 6.14051e-11 0 0 0 
0 0 0 0 0 0 0 0 0 
0 0 0 0 0 0 0 0 0 
0 0 0 0 0 0 0 0 0 
0 0 0 0 0 0 0 2.49898e-10 0 
0 0 0 0 0 0 0 0 0 
0 0 2.64862e-10 0 0 0 0 0 0 
0 0 5.54113e-10 0 0 0 0 0 0 
0 0 0 0 0 0 0 0 0 
0 0 0 0 0 0 0 0 0 
0 0 0 0 0 0 0 0 0 
0 0 0 0 0 0 0 0 0 
0 3.39236e-10 0 0 0 0 0 0 0 
0 0 0 0 0 0 6.94847e-10 0 0 
0 0 0 0 0 0 0 0 0 
0 0 0 0 0 0 0 0 0 
0 0 0 0 0 0 0 0 5.03736e-10 
0 0 0 0 1.04343e-09 0 0 0 0 
0 0 0 0 0 0 0 0 0 
0 0 0 0 0 0 0 0 0 
0 0 0 4.61721e-10 0 0 0 0 0 
0 0 0 0 0 0 0 1.64526e-11 0 
0 0 0 9.42098e-10 0 0 0 0 0 
0 0 0 0 0 0 0 0 0 
0 0 0 0 0 0 0 0 0 
0 0 0 0 0 1.32818e-11 0 0 0 
0 0 0 0 0 0 0 0 0 
0 2.79528e-10 0 0 0 0 4.55964e-10 0 0 
0 0 0 5.72037e-10 0 0 0 0 0 
0 0 0 0 0 0 0 0 0 
0 0 0 0 0 0 0 0 0 
0 0 0 0 0 0 4.83901e-10 0 0 
0 0 0 0 0 0 0 0 0 
0 0 0 0 0 0 0 0 0 
0 0 0 0 0 0 0 0 0 
0 0 3.05747e-10 0 0 0 0 0 0 
0 0 4.38838e-10 0 0 0 0 0 0 
0 0 0 0 0 0 0 0 0 
0 0 0 0 0 0 0 0 0 
0 0 8.39975e-10 0 0 0 0 0 0 
0 0 0 0 0 0 0 0 0 
0 0 0 0 0 0 0 0 0 
0 0 0 0 0 0 0 0 0 
0 0 0 0 0 0 0 0 0 
0 0 0 0 0 0 0 0 0 
0 0 0 0 0 0 0 0 0 
0 0 0 0 0 0 0 0 0 
0 0 0 0 0 0 0 0 0 
0 0 0 0 0 0 0 0 0 
1.40325e-10 0 0 0 0 0 0 0 0 
0 0 0 0 0 0 0 3.54277e-10 2.22126e-10 
0 0 0 0 0 0 0 0 0 
0 0 0 0 0 0 0 0 0 
0 0 0 0 0 0 0 0 0 
0 0 0 0 0 0 0 0 0 
0 0 0 0 0 0 0 0 0 
0 0 0 0 0 0 0 0 0 
0 0 0 0 0 0 0 0 0 
0 0 0 0 0 0 0 0 0 
0 0 2.55607e-10 7.73497e-10 0 0 0 0 0 
0 0 0 0 0 0 0 0 0 
0 0 0 0 0 0 0 0 0 
0 0 0 0 0 0 0 0 0 
0 0 0 0 0 0 0 0 0 
0 0 0 0 0 0 0 0 0 
0 0 0 0 0 0 0 0 0 
0 0 0 0 0 0 0 0 0 
1.81174e-10 0 0 0 0 0 0 0 9.98558e-10 
0 0 0 0 0 0 0 0 0 
0 0 0 0 0 0 8.31481e-10 0 0 
0 0 0 0 0 0 0 0 0 
0 2.12369e-10 0 0 0 0 0 0 0 
8.14616e-10 0 0 0 0 0 0 0 0 
0 0 0 0 0 0 0 0 0 
0 0 0 0 0 0 0 0 0 
0 0 0 0 0 0 0 0 0 
0 0 3.30875e-10 0 0 0 0 0 6.00835e-10 
0 0 0 0 0 0 0 0 0 
0 0 5.74236e-10 0 0 0 0 0 0 
0 0 0 0 0 0 0 0 0 
0 0 0 5.15261e-10 0 0 0 0 0 
0 0 0 0 0 0 0 0 0 
0 0 0 0 0 0 0 0 0 
0 0 0 0 0 0 0 0 0 
0 0 0 0 0 0 0 0 0 
0 0 0 0 0 0 0 0 0 
0 0 0 0 0 0 0 0 0 
0 0 0 0 0 0 0 0 0 
0 0 0 0 0 0 1.04326e-09 6.61686e-10 0 
0 0 0 0 0 0 0 0 0 
0 0 0 0 0 0 0 4.29807e-10 0 
0 0 0 0 0 0 0 0 0 
0 0 0 0 0 0 0 0 0 
0 0 0 0 0 0 0 0 0 
0 0 0 0 3.48264e-10 0 0 0 0 
0 0 0 0 0 0 0 0 0 
0 0 0 0 0 0 0 0 0 
0 4.36879e-10 0 0 0 0 0 0 0 
0 0 0 0 0 0 0 0 0 
0 0 0 0 0 0 0 0 0 
0 0 0 0 0 0 0 0 0 
0 0 0 0 0 0 0 0 0 
0 0 0 0 0 0 0 0 0 
0 0 0 0 0 0 0 9.94334e-11 0 
0 0 0 0 0 0 0 6.51092e-10 0 
0 0 0 0 0 0 0 0 0 
0 0 0 0 0 0 0 0 0 
0 0 0 0 0 0 0 0 0 
0 0 0 0 0 0 0 0 0 
0 1.19227e-09 0 0 0 3.68087e-10 0 0 0 
0 0 0 0 0 0 0 0 0 
0 0 0 0 0 0 0 0 0 
0 6.38458e-10 0 0 0 0 0 3.25201e-10 0 
0 0 0 0 0 0 0 0 0 
0 0 0 0 0 0 0 0 0 
0 0 0 0 0 0 0 0 0 
0 0 0 0 0 0 6.0222e-10 0 0 
0 0 0 0 0 0 0 0 0 
0 0 0 0 0 0 0 0 8.32696e-10 
0 0 0 0 0 0 0 0 0 
0 0 0 1.06426e-09 0 0 0 0 0 
0 0 0 0 0 0 0 0 0 
0 0 0 0 0 0 0 0 0 
0 0 0 0 0 0 3.79448e-10 0 0 
0 0 0 0 0 0 0 0 0 
0 0 0 0 0 0 0 0 0 
0 0 0 5.87253e-10 0 0 1.69798e-10 0 0 
0 0 0 0 0 0 0 0 0 
0 0 0 0 0 0 0 0 0 
0 0 0 0 0 0 0 0 0 
0 0 0 0 0 0 6.56932e-11 0 0 
0 5.30946e-10 0 0 0 0 0 0 0 
0 0 0 0 0 0 0 0 0 
0 0 0 0 0 0 0 0 0 
0 0 0 0 0 0 0 0 0 
0 0 0 0 0 0 0 0 0 
0 0 0 0 0 0 0 0 0 
0 0 0 0 0 0 0 0 0 
0 0 0 0 0 0 0 0 2.67558e-10 
0 0 0 0 0 0 0 0 0 
0 8.62897e-10 0 0 0 0 4.67786e-10 0 0 
0 0 0 0 0 0 0 0 0 
0 0 0 0 0 0 0 0 0 
0 0 0 0 0 0 0 5.51456e-10 0 
0 9.24302e-10 0 0 0 0 7.93236e-10 0 0 
7.70644e-10 0 0 0 0 0 0 3.86892e-10 0 
0 0 0 0 0 0 0 0 0 
0 0 0 0 0 0 0 0 0 
0 0 0 0 0 0 0 0 0 
0 2.82562e-10 0 0 0 0 4.16342e-10 0 0 
0 0 0 0 0 0 0 0 0 
0 0 0 0 0 0 0 0 0 
0 0 0 0 0 0 0 0 0 
0 0 0 0 0 0 0 0 0 
0 0 0 0 0 0 0 0 0 
5.04627e-10 0 0 0 0 0 0 0 0 
0 0 0 0 0 0 0 0 0 
0 0 0 0 0 0 0 4.25114e-10 0 
0 0 0 0 0 0 0 0 0 
0 0 0 0 0 0 0 0 0 
0 0 0 0 0 2.67217e-10 0 0 0 
0 0 0 0 0 0 0 0 0 
0 0 0 0 8.22673e-10 0 7.30758e-11 0 0 
0 0 0 0 0 0 0 0 0 
0 0 0 0 0 0 0 0 0 
0 0 0 0 0 0 0 2.21251e-10 0 
0 0 0 0 0 9.24443e-11 0 0 0 
0 0 0 0 0 0 0 0 0 
0 0 0 0 0 0 0 0 0 
0 0 0 0 0 0 0 0 0 
0 0 0 0 0 0 0 0 0 
9.67351e-10 0 0 0 0 0 3.85745e-10 0 0 
0 0 0 4.3536e-10 0 0 0 0 0 
0 0 2.94509e-10 0 0 0 0 1.14053e-10 0 
0 0 0 0 0 0 0 0 0 
0 0 0 0 0 0 0 0 0 
0 0 0 0 0 0 0 0 0 
0 0 0 0 0 0 0 0 0 
1.06011e-09 0 1.85522e-10 6.67438e-10 0 0 0 0 0 
0 0 0 0 0 0 0 0 0 
0 0 0 0 0 0 0 0 0 
0 0 0 2.12196e-10 0 0 0 0 0 
0 0 0 0 0 0 6.83361e-10 0 0 
0 0 0 0 0 0 0 0 0 
0 0 0 0 0 0 0 0 0 
0 0 0 0 0 0 0 0 0 
0 0 0 0 0 0 0 0 0 
0 0 0 0 0 0 0 0 0 
0 0 0 0 0 0 0 0 0 
0 0 0 0 0 0 0 0 0 
0 0 0 0 0 0 0 0 0 
0 0 0 0 0 0 0 0 0 
0 0 0 0 0 0 0 0 0 
0 0 2.61799e-10 0 0 0 0 0 0 
0 0 0 0 0 0 0 0 0 
0 0 0 0 0 0 0 0 0 
0 0 0 0 0 0 0 0 0 
6.98797e-10 0 0 0 0 0 0 7.33259e-10 0 
0 0 0 0 0 0 0 0 0 
0 0 0 0 0 0 0 0 0 
0 0 0 0 1.11521e-09 0 0 0 0 
0 0 0 0 0 0 0 0 0 
0 0 0 0 0 0 0 0 0 
0 0 0 0 0 0 0 0 0 
0 0 0 7.85642e-10 0 0 4.2548e-10 0 0 
0 0 0 4.79737e-10 0 0 0 0 0 
0 0 0 0 0 0 0 0 0 
0 0 0 0 0 2.45249e-10 3.19162e-10 0 0 
0 0 0 0 0 0 0 9.06805e-10 0 
0 0 0 5.8488e-10 0 0 0 0 0 
0 0 0 0 0 8.08033e-10 0 0 0 
0 0 0 0 0 0 0 0 0 
0 0 0 0 0 0 0 1.12918e-09 0 
0 0 0 0 0 0 0 0 0 
0 0 0 0 0 0 0 0 0 
0 0 4.5932e-10 0 0 0 0 0 0 
0 0 0 0 0 0 0 0 0 
0 0 0 0 0 0 0 0 0 
0 0 8.32781e-10 0 0 0 0 0 0 
0 0 0 0 0 0 0 0 0 
0 0 0 0 0 0 7.75955e-10 0 0 
0 0 0 0 0 5.29425e-10 0 0 0 
1.15964e-10 0 0 0 0 0 0 0 0 
0 0 0 0 6.2235e-10 0 0 0 0 
0 0 0 0 0 0 0 0 0 
0 0 0 0 0 0 0 0 0 
0 0 0 0 0 0 0 0 0 
0 2.29994e-10 0 3.57598e-10 0 0 0 0 0 
0 0 0 6.96936e-10 0 0 0 0 0 
0 0 0 0 0 0 0 0 0 
0 0 0 0 0 0 0 0 0 
0 0 3.63038e-10 0 0 0 0 0 0 
0 0 0 0 0 0 0 0 0 
0 0 0 0 0 0 0 0 0 
0 0 3.35954e-10 0 0 0 0 0 0 
0 0 0 0 0 0 0 0 0 
0 0 0 0 0 0 9.89534e-10 0 0 
0 0 0 0 0 0 0 7.22142e-10 0 
0 0 0 0 0 0 0 0 0 
0 0 0 0 0 0 0 0 0 
0 0 0 0 0 0 0 0 0 
0 0 0 0 0 3.57787e-10 0 0 0 
0 8.6542e-10 0 0 0 0 0 0 0 
0 0 0 0 0 0 0 0 0 
0 0 0 0 0 1.19581e-09 0 0 0 
0 0 0 0 0 0 0 0 0 
0 0 0 0 0 0 0 
feature_5 1 2500 float
0 0 0 0 0 0 0 0 0 
0 0 0 0 0 0 0 0 0 
0 0 0 0 0 0 0 0 0 
0 0 0 0 0 0 9.75557e-10 0 0 
0 0 0 0 0 4.41965e-10 0 0 0 
0 0 0 0 0 0 0 0 0 
0 9.18934e-10 0 0 0 0 0 0 0 
0 0 0 0 0 0 0 0 0 
0 0 0 0 0 0 0 0 0 
0 0 0 0 0 0 0 1.08366e-09 0 
0 0 3.25496e-10 0 0 0 0 0 0 
3.26242e-08 0 1.03125e-09 0 0 0 0 0 0 
0 0 5.64821e-10 0 1.2184e-10 0 0 0 0 
0 0 0 0 0 0 0 0 0 
0 0 0 0 0 0 0 0 0 
0 0 0 0 0 0 1.01988e-10 0 0 
0 0 0 0 0 0 0 0 2.72959e-10 
0 0 0 0 0 0 0 0 0 
0 0 0 0 0 0 0 0 0 
0 0 0 0 0 0 0 0 0 
0 0 0 0 0 0 9.20824e-10 0 0 
0 0 0 3.06505e-08 0 0 1.78996e-10 0 2.45145e-08 
0 0 5.80002e-10 6.26681e-10 0 0 0 0 0 
0 0 0 0 0 0 0 0 0 
0 0 1.42121e-08 0 0 0 0 0 0 
0 0 0 0 0 0 0 0 8.39982e-10 
0 0 0 0 0 0 0 0 0 
0 0 1.43163e-08 0 0 0 0 0 0 
0 0 0 0 0 0 0 6.47166e-10 0 
0 0 0 0 0 0 0 0 0 
0 0 0 0 0 0 0 0 0 
0 0 0 0 0 0 0 4.90068e-10 0 
0 0 0 0 1.17615e-09 0 0 0 0 
0 0 0 2.03515e-10 0 0 0 0 0 
0 0 0 0 0 0 0 0 0 
0 0 0 0 0 0 0 0 0 
0 0 0 0 0 0 0 0 0 
0 0 0 0 0 0 0 1.39289e-08 0 
0 0 0 6.54111e-10 0 0 0 0 0 
0 0 0 0 0 0 0 0 0 
0 6.6948e-10 0 0 0 0 0 0 0 
8.0383e-10 0 0 0 0 0 0 0 0 
0 0 0 0 0 0 0 0 0 
2.58424e-10 0 0 0 7.3231e-10 0 0 0 0 
0 0 0 0 0 0 1.84668e-08 0 0 
0 0 0 1.26865e-07 0 0 0 0 4.01858e-09 
0 0 0 6.16179e-10 0 0 0 0 0 
0 0 0 0 0 0 0 0 9.70982e-10 
0 0 0 0 0 0 0 0 0 
0 0 0 0 0 0 0 0 0 
0 0 0 0 0 0 0 0 0 
0 7.94238e-10 0 0 6.59423e-10 0 0 0 0 
0 0 0 0 0 0 0 0 0 
0 0 0 0 0 0 0 0 0 
0 0 0 0 0 0 0 0 0 
5.16287e-10 0 0 8.80274e-10 0 0 0 0 0 
2.30178e-08 0 0 0 0 0 0 0 0 
0 0 0 0 0 0 0 1.04009e-09 0 
0 3.0964e-10 0 0 0 0 0 0 3.4257e-10 
0 5.32197e-11 0 0 0 0 0 2.98559e-10 6.75627e-10 