# vtk DataFile Version 5.1
vtk output
ASCII
DATASET STRUCTURED_POINTS
DIMENSIONS 50 50 1
SPACING 1 1 1
ORIGIN 0 0 0
POINT_DATA 2500
FIELD FieldData 6
feature_1 1 2500 float
0 0 0 0 7.60362e-10 0 0 0 0 
0 0 0 0 0 0 0 0 0 
0 0 0 0 0 0 8.6882e-10 0 0 
0 0 0 0 0 0 0 0 0 
0 0 0 0 0 0 0 0 8.85411e-10 
0 0 0 0 0 0 0 0 0 
0 0 6.46637e-10 0 9.60043e-11 0 0 0 0 
0 0 0 0 0 0 7.75547e-10 0 0 
0 0 0 0 0 0 0 0 0 
0 0 0 0 0 0 0 0 0 
3.74854e-10 0 0 9.65574e-10 0 0 0 1.23741e-09 7.94426e-10 
0 6.27089e-10 0 0 0 0 0 0 0 
0 0 0 0 0 0 0 0 0 
0 0 0 0 0 0 0 0 0 
0 3.18518e-10 0 0 0 0 0 0 0 
0 0 0 0 0 0 0 0 0 
0 4.05409e-10 0 0 0 0 0 0 0 
0 0 7.28114e-10 0 0 0 0 0 0 
0 0 0 0 0 0 0 0 0 
0 0 0 0 0 0 0 0 0 
0 0 0 0 0 0 0 0 0 
0 0 0 0 0 0 0 2.99906e-10 0 
0 0 0 0 0 0 0 0 0 
0 0 0 0 0 0 0 0 0 
0 0 0 0 0 0 0 7.00556e-10 1.48983e-10 
0 0 0 0 0 0 0 0 0 
0 0 0 0 0 0 0 0 0 
0 0 0 0 0 0 0 0 9.91054e-10 
0 0 0 0 0 0 0 0 0 
0 0 0 0 0 0 0 0 0 
0 0 0 0 0 0 0 0 0 
0 0 0 6.8496e-10 0 0 0 0 0 
0 0 0 0 0 0 0 0 0 
0 0 0 0 0 0 0 0 0 
0 1.4416e-09 0 0 5.81828e-11 0 0 0 0 
0 0 0 2.53822e-10 0 0 0 0 0 
0 0 0 0 0 0 0 0 0 
0 0 0 0 0 0 0 0 0 
0 0 0 0 0 0 0 0 0 
0 0 0 0 0 0 0 9.75e-10 0 
0 0 0 3.59108e-10 0 0 0 0 2.65382e-08 
1.09022e-09 0 0 0 0 0 0 0 6.77284e-06 
5.14299e-08 0 0 0 0 0 0 0 0 
0 0 0 0 0 0 0 0 0 
0 0 0 0 0 0 0 0 0 
0 0 0 6.78079e-06 0 0 0 0 0 
0 0 0 0 6.79138e-06 0 0 0 0 
0 0 0 0 0 0 0 0 0 
0 1.2784e-09 0 0 0 0 0 0 0 
0 0 0 0 0 0 0 0 0 
0 5.55463e-10 0 0 0 0 0 0 4.52523e-10 
0 0 0 0 0 0 0 0 2.99842e-08 
0 0 0 0 0 0 0 0 0 
0 0 2.69341e-09 0 0 0 0 0 0 
0 0 0 0 0 0 0 0 0 
0 0 0 0 0 0 0 0 0 
1.80396e-10 0 0 0 0 0 0 0 0 
0 0 0 7.18677e-06 0 1.04347e-09 0 0 0 
0 0 0 0 0 0 0 0 0 
0 0 3.11691e-08 0 1.16574e-09 0 0 0 0 
6.87327e-06 0 0 0 0 6.50612e-10 0 0 0 
0 0 0 0 7.06876e-10 0 0 0 0 
0 0 7.19047e-06 0 0 7.02481e-06 0 7.35843e-06 9.5422e-10 
0 0 0 8.56094e-10 0 0 0 0 0 
0 0 0 0 0 0 8.09831e-06 8.39566e-06 0 
0 3.78733e-08 6.88865e-06 0 0 3.27909e-08 0 0 0 
0 0 0 0 0 0 0 0 0 
0 0 0 0 0 6.14279e-08 7.16919e-06 0 0 
0 0 0 0 0 0 0 0 0 
0 0 0 0 1.12273e-10 0 0 0 0 
0 1.30289e-09 0 0 7.25469e-06 0 0 3.47044e-08 0 
6.93545e-06 0 0 0 0 0 0 0 0 
0 0 0 6.27313e-10 0 0 0 0 0 
0 1.53041e-08 0 0 0 0 0 0 0 
0 0 0 0 0 0 0 0 6.80424e-06 
0 0 6.81138e-06 0 0 0 0 0 0 
0 1.20321e-09 0 0 0 0 0 0 0 
1.8729e-10 0 9.18e-10 0 0 0 0 0 0 
0 0 0 0 0 8.98627e-10 0 0 0 
0 0 0 0 0 0 0 0 0 
0 2.40949e-10 0 0 2.21453e-08 0 0 5.37475e-08 0 
0 0 0 0 0 0 0 0 0 
0 0 0 0 0 0 0 0 0 
0 0 0 0 0 0 0 0 0 
0 0 3.97549e-11 0 0 6.91647e-06 0 2.59475e-07 7.38935e-06 
0 0 0 0 0 0 0 0 0 
0 0 0 0 0 0 0 6.87023e-06 6.61268e-08 
0 0 0 0 0 0 0 0 0 
0 0 0 0 0 0 0 0 1.27178e-09 
0 0 0 0 0 0 0 0 0 
0 4.67767e-08 0 7.64001e-06 0 0 0 0 0 
9.49019e-10 1.67274e-08 6.79968e-06 3.14287e-08 0 0 0 3.52141e-10 0 
0 0 0 0 5.74301e-08 0 0 0 0 
0 0 0 0 0 0 0 0 0 
0 0 0 0 0 0 0 0 0 
0 0 0 5.46907e-10 6.1927e-10 0 0 0 0 
7.45411e-06 0 0 7.30629e-09 0 1.44619e-09 0 0 0 
0 0 2.18981e-08 0 0 0 7.85318e-09 0 0 
0 0 0 0 6.12846e-07 0 0 0 0 
1.21472e-09 0 6.89301e-10 6.59472e-10 0 0 0 1.06043e-09 0 
6.11029e-10 0 0 1.22661e-09 0 0 0 0 0 
0 0 6.83862e-06 0 0 0 3.89048e-08 0 0 
0 3.13008e-10 0 0 0 0 0 0 6.97842e-06 
0 0 0 0 0 8.10873e-06 0 0 7.50034e-06 
0 7.56066e-06 0 0 0 0 1.99286e-10 0 0 
0 0 0 0 0 0 0 0 0 
0 0 0 0 0 0 0 0 0 
0 0 7.07905e-06 0 7.22909e-06 7.3493e-08 8.60291e-06 9.3047e-06 0 
0 0 0 4.93244e-08 0 0 0 0 0 
0 5.58333e-08 0 0 0 7.99574e-06 0 0 0 
0 0 0 0 0 0 0 0 0 
0 0 0 7.94692e-10 0 0 0 0 0 
0 0 0 0 0 0 0 0 0 
0 0 0 8.41402e-06 4.21964e-08 6.78046e-10 0 0 0 
0 0 0 0 0 0 0 0 7.41771e-06 
0 0 7.43966e-06 0 0 0 0 0 0 
0 0 0 0 0 0 0 0 0 
0 0 0 0 0 0 0 0 0 
0 0 0 0 0 0 0 0 3.13545e-08 
0 0 0 0 0 0 0 0 0 
0 7.09008e-06 0 7.53774e-06 0 0 0 2.9072e-08 0 
0 0 0 0 0 0 0 0 0 
0 0 0 0 0 0 0 0 2.5758e-08 
8.01431e-06 8.01989e-06 0 0 4.33975e-10 0 0 6.78901e-06 0 
0 0 0 0 1.97381e-08 0 0 0 0 
1.64249e-10 0 0 0 0 0 0 0 7.00794e-08 
0 0 0 0 0 0 0 0 0 
0 0 0 0 0 0 0 0 0 
0 0 0 0 1.692e-08 0 0 0 0 
0 0 0 4.42218e-08 0 0 3.2887e-08 6.86342e-06 0 
0 0 0 0 0 0 7.18395e-06 0 0 
0 0 0 7.1389e-06 0 7.12218e-06 0 0 6.83571e-06 
2.73046e-08 0 0 0 4.14397e-10 0 0 0 0 
0 0 0 0 0 0 0 0 0 
0 0 7.09544e-10 0 0 0 0 0 0 
0 0 0 0 0 0 0 0 0 
0 0 0 7.20067e-06 0 0 0 0 0 
0 1.368e-08 0 0 0 0 0 0 0 
0 0 0 0 0 0 0 0 0 
0 0 0 0 0 0 0 0 0 
0 0 0 0 0 0 0 0 0 
6.95481e-06 0 0 0 0 8.21202e-06 0 0 0 
0 0 0 0 0 0 0 1.00876e-08 0 
0 0 0 0 0 0 2.77734e-10 0 0 
0 0 0 0 0 0 0 0 0 
0 0 0 0 0 0 0 0 0 
0 0 0 0 1.38174e-09 0 0 2.16649e-08 7.53158e-06 
3.14688e-06 8.61521e-06 0 0 0 0 0 0 0 
0 1.56067e-10 0 0 0 0 0 0 0 
3.27099e-08 0 0 0 0 0 0 0 0 
0 0 0 0 0 0 0 0 0 
0 0 0 0 0 0 0 0 0 
0 0 6.97162e-06 0 0 7.64598e-06 0 0 0 
6.90792e-06 0 0 0 1.85685e-08 0 0 0 0 
0 0 0 0 6.76962e-06 3.29532e-08 0 0 0 
0 0 0 1.86857e-10 0 0 0 0 0 
0 0 0 0 0 0 0 0 6.75863e-08 
0 0 0 0 0 0 0 0 0 
0 0 0 0 0 0 0 7.0558e-06 0 
6.70394e-06 0 0 0 6.79649e-06 0 1.13571e-09 0 0 
0 0 0 0 0 0 0 0 0 
0 0 0 0 0 0 0 0 0 
6.88021e-06 0 0 0 6.87701e-06 0 0 0 0 
0 0 0 0 0 0 0 0 0 
0 0 0 2.5135e-08 0 0 0 0 0 
0 0 5.77813e-10 2.47624e-10 0 0 0 0 0 
0 0 0 0 0 0 0 0 0 
0 0 0 0 0 0 0 8.17885e-06 0 
0 0 0 4.03551e-09 0 0 0 0 0 
0 0 0 0 0 0 0 0 0 
0 0 2.93049e-08 6.81593e-06 1.34741e-08 0 0 0 0 
0 0 0 0 0 7.3759e-10 0 0 0 
0 0 0 0 0 0 0 0 0 
0 0 0 8.057e-06 0 0 0 0 0 
0 0 0 6.79442e-06 1.20206e-09 0 0 0 0 
0 0 0 0 0 0 0 0 0 
0 0 0 0 0 0 0 0 0 
0 0 0 0 0 0 0 0 0 
0 0 0 0 0 0 0 0 0 
0 1.03712e-09 0 0 0 0 0 1.35926e-09 0 
0 0 8.82025e-10 0 0 0 0 0 0 
4.81692e-08 0 0 0 0 0 0 0 1.36958e-09 
7.23322e-06 0 0 0 0 0 0 0 0 
0 0 9.445e-10 0 0 0 0 0 0 
0 0 0 0 0 0 0 6.78293e-06 9.44087e-10 
1.18463e-08 0 6.36824e-10 0 0 0 0 0 0 
0 0 0 0 3.1841e-08 6.78072e-06 4.33223e-08 0 0 
0 0 0 0 7.18646e-06 0 1.05623e-07 6.88717e-06 0 
0 0 0 0 0 0 0 0 0 
0 0 0 0 0 0 0 0 0 
0 0 0 0 0 0 0 3.9969e-08 6.88271e-06 
4.06196e-08 0 0 0 0 0 3.63461e-08 0 0 
0 0 0 0 0 0 0 6.89584e-10 0 
3.08072e-10 0 1.63029e-08 0 0 0 0 0 0 
0 0 0 0 0 0 0 0 0 
9.56298e-10 0 0 6.77733e-06 0 0 0 0 0 
0 0 0 0 0 0 0 0 0 
0 0 6.96485e-06 4.59004e-08 0 0 0 0 0 
0 1.58478e-09 0 0 0 0 0 0 0 
0 0 0 0 0 0 0 0 0 
0 0 0 0 0 0 0 0 0 
0 0 0 0 0 2.62819e-10 0 8.03094e-06 3.2929e-10 
0 6.24677e-10 4.9002e-10 0 8.02707e-06 8.10428e-06 0 0 0 
6.98925e-06 0 0 0 0 0 0 0 0 
0 0 0 0 0 0 0 0 0 
0 0 0 0 0 0 0 0 0 
0 0 1.13633e-09 0 0 0 5.81794e-10 0 0 
2.38948e-10 0 0 0 0 0 0 4.75541e-10 0 
0 0 0 0 3.80224e-08 0 1.31872e-09 0 0 
0 0 0 0 1.3719e-09 1.27962e-09 0 0 0 
0 0 0 0 0 0 0 0 0 
0 0 0 0 0 0 0 0 0 
0 0 1.7345e-08 0 0 0 1.71124e-10 0 0 
0 0 0 0 0 0 0 0 0 
8.4402e-06 0 8.27254e-08 7.21754e-06 0 0 0 0 0 
0 0 0 1.06422e-09 0 0 0 0 0 
0 0 0 0 0 0 0 0 0 
0 0 0 0 0 2.22077e-08 6.80286e-06 0 0 
7.00151e-06 0 0 0 0 0 0 0 0 
0 8.93305e-10 0 0 2.44714e-10 8.84627e-06 0 7.48863e-06 0 
0 0 0 0 9.92486e-10 0 0 0 1.12727e-08 
2.79511e-08 0 0 0 1.51985e-08 0 0 0 0 
0 0 0 0 0 1.18283e-09 0 0 8.90552e-10 
0 0 0 0 0 5.45257e-08 0 0 0 
0 0 0 5.20284e-10 0 0 0 6.8422e-06 0 
0 0 0 0 0 0 0 0 0 
0 8.17671e-06 0 0 0 6.91171e-06 0 0 6.88249e-06 
1.42209e-09 0 0 0 5.61258e-11 1.02244e-09 0 7.63578e-10 0 
0 0 0 0 1.10663e-09 1.06961e-09 0 0 0 
2.78335e-08 6.97853e-06 0 0 0 0 0 0 0 
0 0 0 0 0 0 0 0 0 
3.54358e-08 0 0 0 7.05571e-06 0 8.4209e-06 0 7.14839e-06 
0 0 0 0 0 0 0 0 0 
0 0 0 0 0 0 0 0 0 
0 0 0 0 0 0 0 0 0 
0 0 0 0 0 8.60876e-10 0 0 0 
0 0 0 0 0 6.7934e-06 2.33281e-08 0 0 
6.26066e-08 0 4.32183e-08 0 0 0 0 3.08714e-08 6.87167e-06 
0 0 0 0 0 0 1.44562e-09 0 0 
0 0 0 0 0 0 0 0 0 
0 0 0 0 1.36563e-10 0 0 0 0 
0 0 0 0 8.15e-10 0 0 0 0 
0 0 0 0 0 0 0 0 0 
0 0 0 0 0 0 0 0 0 
0 0 0 0 0 0 0 0 0 
0 0 0 0 0 0 0 0 0 
0 0 0 0 0 0 0 0 0 
0 0 0 0 0 0 1.95174e-08 0 0 
0 6.832e-11 0 0 0 0 0 0 0 
0 0 0 0 0 0 0 0 0 
0 0 0 0 0 0 0 8.09539e-10 0 
0 0 0 0 0 0 0 0 0 
0 0 0 0 0 0 0 0 0 
0 0 0 0 0 0 0 0 0 
0 0 0 0 0 7.24092e-09 0 7.11687e-10 0 
0 0 0 0 0 0 0 0 0 
0 0 0 0 0 0 0 0 0 
0 0 0 0 0 0 0 0 0 
0 0 0 0 0 0 0 0 0 
0 0 0 0 0 0 0 0 0 
0 0 0 6.62592e-10 0 0 0 0 0 
0 0 0 0 0 0 0 0 0 
0 0 0 0 0 0 0 0 0 
0 0 0 0 0 0 0 0 0 
0 0 0 0 0 0 7.3118e-10 0 1.21178e-09 
0 0 0 0 0 0 0 0 0 
0 0 0 0 0 0 0 0 0 
0 0 0 0 0 9.37568e-10 0 0 0 
0 2.29097e-10 0 0 0 0 0 0 0 
0 0 0 7.20039e-10 0 0 0 0 0 
0 0 0 0 0 0 0 0 0 
0 0 0 0 0 0 0 0 0 
0 0 0 0 0 0 0 0 0 
0 0 0 0 0 7.1724e-10 0 0 0 
0 0 0 0 0 0 0 0 4.58658e-10 
0 0 0 0 0 0 0 0 0 
0 0 0 0 0 0 0 0 0 
0 0 0 0 0 0 0 
feature_2 1 2500 float
0 0 0 0 0 0 0 0 0 
0 0 0 0 0 0 0 0 0 
0 0 0 0 0 0 0 0 0 
0 0 0 0 0 0 0 0 0 
0 0 0 0 0 0 0 0 0 
0 0 0 8.39782e-10 0 0 0 0 0 
0 0 0 0 0 1.41981e-09 1.50555e-10 0 0 
0 0 0 0 0 0 0 0 0 
0 0 0 0 0 0 0 0 0 
0 0 0 0 0 0 4.69928e-10 0 0 
0 0 0 6.01332e-11 0 0 0 0 0 
2.73514e-08 0 0 0 0 0 0 0 0 
0 0 0 0 0 0 0 0 0 
0 0 0 0 0 0 0 0 0 
0 0 0 0 0 0 0 0 0 
1.12316e-09 0 0 0 0 0 0 0 0 
0 0 0 0 0 0 0 0 0 
0 0 0 0 0 0 0 0 0 
0 0 0 0 0 0 0 0 0 
0 0 0 0 0 0 0 0 0 
0 0 5.31091e-10 0 0 0 0 0 0 
0 7.13133e-10 0 0 0 0 0 1.07945e-09 0 
0 0 0 0 0 0 0 0 0 
0 0 0 0 0 0 0 0 0 
0 0 0 0 0 0 0 0 0 
0 0 4.66422e-10 7.53385e-10 0 0 0 0 0 
0 1.04988e-09 0 0 0 0 0 0 0 
0 0 1.37439e-08 0 0 0 0 0 0 
0 0 0 0 0 0 0 0 0 
0 0 0 0 1.07205e-09 0 0 0 0 
0 0 0 0 0 0 0 0 0 
0 0 1.59998e-09 0 0 3.20295e-10 0 0 0 
0 0 0 0 0 0 0 0 0 
0 0 0 0 0 0 0 0 0 
0 0 0 0 0 0 0 0 0 
0 0 0 0 0 0 0 4.94659e-10 0 
0 0 0 0 0 0 0 0 0 
0 0 1.04445e-08 0 0 0 0 0 0 
0 0 0 0 0 0 0 0 0 
0 0 0 0 0 0 0 1.28065e-10 0 
0 0 0 0 0 0 0 0 0 
0 0 0 0 0 0 0 0 0 
0 0 0 0 0 6.02729e-10 0 0 0 
0 0 0 0 0 0 6.15326e-10 1.70085e-10 0 
0 0 0 0 0 0 1.77264e-08 0 0 
0 0 0 9.52353e-08 0 0 7.75097e-10 0 0 
0 0 0 0 0 0 0 0 0 
0 0 0 0 0 0 0 0 0 
0 0 0 0 0 0 0 0 0 
0 0 0 0 0 0 0 0 0 
0 0 0 0 0 0 0 0 0 
0 0 0 0 0 0 0 0 0 
0 0 0 0 0 0 0 0 0 
0 0 0 0 0 0 0 0 0 
0 0 0 0 0 0 0 0 0 
0 0 7.02917e-10 0 0 0 0 0 0 
0 0 0 0 0 0 0 0 0 
0 0 0 0 0 0 0 1.51155e-09 0 
0 0 0 0 0 0 0 0 0 
0 0 0 0 0 0 0 0 0 
0 0 0 0 0 0 0 0 0 
0 0 0 0 0 0 0 0 0 
1.13485e-09 0 0 0 0 0 0 0 0 
0 0 0 0 0 0 0 0 0 
0 0 0 0 0 0 0 0 0 
0 0 1.34055e-09 0 0 0 0 0 0 
0 0 0 0 0 0 0 0 0 
0 0 0 0 0 0 0 2.53279e-10 3.77348e-10 
0 0 0 0 0 0 0 0 0 
0 0 0 0 0 0 0 0 0 
0 0 0 0 0 0 0 0 0 
0 0 0 0 0 0 0 0 0 
0 0 0 0 0 0 0 0 0 
0 0 0 0 0 0 0 5.66498e-10 0 
6.52982e-10 1.22253e-09 0 0 0 5.5001e-10 0 0 0 
0 0 1.15709e-09 0 0 0 0 0 0 
0 0 0 0 0 0 0 0 0 
0 0 0 1.47114e-09 0 0 0 0 0 
0 0 0 0 0 0 1.61819e-09 0 6.90278e-10 
0 0 0 0 0 0 0 0 0 
0 0 6.05439e-10 0 0 0 0 0 0 
0 0 0 0 0 0 0 0 9.01199e-10 
0 0 0 0 0 0 0 0 0 
0 0 0 0 0 0 0 0 0 
5.70157e-10 0 0 0 0 0 0 6.81491e-07 3.24249e-07 
0 0 0 0 0 0 0 0 0 
0 0 0 0 0 0 0 0 0 
0 0 0 0 4.75513e-10 0 0 0 0 
0 0 0 0 0 0 0 0 0 
0 0 0 0 0 0 0 0 0 
0 0 0 1.1957e-07 0 0 0 0 0 
0 0 0 0 0 0 0 0 0 
0 0 0 0 0 0 0 0 0 
0 0 0 0 0 0 0 6.05567e-10 0 
0 0 0 7.46734e-10 0 0 0 0 0 
0 0 0 6.97959e-10 0 0 0 0 0 
0 0 0 0 0 0 0 0 1.90466e-10 
0 0 0 0 0 0 0 0 0 
0 0 0 0 0 0 1.01122e-09 0 0 
0 0 0 0 0 0 0 0 0 
0 0 0 0 0 1.15108e-09 0 0 0 
0 0 1.28499e-09 0 0 0 1.11946e-09 0 0 
0 0 0 0 0 0 0 0 0 
0 1.17319e-09 5.18444e-10 0 1.37522e-09 0 0 0 0 
0 0 0 0 0 7.11644e-10 0 0 0 
0 0 0 0 0 0 0 0 0 
0 0 0 1.00452e-09 0 0 0 0 0 
0 0 0 0 0 0 0 0 0 
0 0 0 0 0 0 0 0 0 
0 0 0 0 0 0 0 0 0 
0 0 0 0 0 0 0 0 0 
0 0 0 0 0 0 0 0 0 
0 0 0 0 0 0 0 0 0 
0 0 0 0 0 0 0 0 0 
0 0 0 1.72917e-10 0 0 0 0 0 
0 0 0 0 0 0 0 0 0 
0 0 0 0 0 1.0054e-09 0 0 0 
0 0 0 0 0 0 0 0 0 
0 0 0 0 0 0 0 0 0 
0 0 0 0 0 0 0 0 0 
0 1.98781e-10 0 0 0 0 0 0 0 
0 0 0 0 6.66935e-10 0 0 0 0 
0 0 0 0 0 0 0 0 0 
0 0 0 0 0 0 0 0 0 
0 0 6.64205e-10 0 5.57501e-10 0 0 0 0 
0 0 0 0 0 0 0 0 0 
0 0 0 0 0 0 0 0 0 
0 0 0 1.16048e-09 0 0 0 0 0 
0 0 0 0 0 0 0 0 0 
0 0 0 0 0 0 0 1.36266e-09 0 
0 0 0 0 0 0 0 0 0 
0 0 0 0 0 0 0 0 0 
0 0 0 0 0 0 0 1.39944e-09 0 
0 0 0 0 4.0259e-10 0 0 0 0 
0 0 0 0 0 0 0 2.04192e-09 0 
3.71518e-10 0 0 0 0 0 0 0 0 
0 0 0 0 0 0 0 0 0 
0 0 0 0 0 0 0 0 1.25667e-09 
0 0 0 0 0 0 0 0 0 
0 0 0 0 0 2.21144e-10 0 0 0 
0 0 0 0 0 0 0 0 0 
0 0 0 0 1.11713e-09 0 0 0 6.27683e-10 
0 0 0 0 0 0 0 0 0 
0 0 0 0 0 0 0 0 0 
0 0 0 0 0 0 0 0 0 
0 0 0 0 0 0 0 0 0 
0 2.22131e-08 0 1.25875e-09 0 0 7.58501e-10 0 0 
0 0 0 0 0 0 0 0 0 
0 0 0 0 0 0 0 0 0 
0 0 0 1.16719e-09 0 0 0 0 0 
0 0 0 0 0 0 0 0 0 
0 0 0 0 0 0 0 1.57799e-10 0 
0 0 0 0 0 1.75931e-08 0 0 0 
0 0 0 0 0 0 0 0 0 
0 0 0 1.00349e-09 0 0 0 8.19069e-11 1.19415e-08 
0 0 0 0 0 0 0 0 0 
0 0 0 0 0 0 0 0 0 
0 0 0 0 0 0 0 0 0 
0 0 0 0 0 0 0 0 0 
0 0 0 0 0 0 0 0 0 
0 0 0 0 0 0 0 0 0 
0 0 0 0 0 0 0 0 0 
1.06162e-09 0 0 0 0 0 0 0 0 
0 0 0 0 0 0 0 0 0 
0 0 0 0 0 0 0 0 0 
0 9.26075e-10 0 0 0 0 0 0 0 
0 0 0 0 0 0 0 0 0 
0 0 0 0 0 0 0 0 0 
0 0 0 0 0 0 0 0 0 
0 0 0 0 0 0 0 0 5.26038e-10 
0 0 0 0 0 0 0 0 0 
0 0 0 0 0 1.36432e-09 0 0 0 
0 0 0 0 0 0 0 9.28729e-10 0 
0 0 0 0 0 0 0 0 0 
0 0 8.81663e-10 0 0 0 0 0 0 
0 0 0 0 0 0 0 0 0 
0 0 0 0 0 0 0 0 0 
0 0 0 0 0 0 0 0 0 
0 0 0 0 0 0 0 0 0 
0 0 0 0 0 0 0 1.12753e-09 4.36181e-10 
0 0 0 6.64265e-10 0 0 0 0 0 
0 0 0 0 0 0 0 0 0 
0 0 0 0 0 0 0 0 1.18817e-09 
0 0 4.30587e-10 1.0393e-09 0 1.26023e-09 0 0 0 
0 0 0 0 0 0 0 0 0 
0 0 6.85866e-10 0 0 0 0 0 0 
0 0 0 0 0 0 0 0 0 
0 0 0 0 0 0 0 0 0 
0 0 0 0 0 0 0 0 0 
0 0 0 0 0 0 0 0 0 
0 0 0 0 0 0 0 0 0 
5.44272e-10 0 0 0 0 0 0 0 0 
8.27546e-10 0 0 0 4.08331e-10 0 0 0 0 
0 0 0 0 0 0 0 0 0 
0 0 0 0 0 0 0 0 0 
0 0 0 0 0 0 0 0 0 
0 0 0 0 0 0 0 0 0 
4.26395e-10 0 0 0 0 1.29929e-09 0 0 0 
0 0 0 0 0 0 1.14142e-09 9.43007e-10 0 
0 0 0 0 0 0 0 0 0 
0 6.37094e-10 0 0 0 0 0 0 0 
0 3.6199e-10 0 0 0 0 0 0 0 
0 1.24477e-09 0 0 0 0 0 0 0 
0 0 0 0 0 0 0 0 0 
0 0 0 0 0 0 0 1.05858e-10 0 
7.30886e-10 0 0 0 0 0 0 0 0 
0 6.68404e-10 0 0 0 0 0 0 0 
0 0 0 0 0 0 0 0 0 
0 0 0 1.03682e-09 0 0 0 0 0 
0 0 0 0 0 0 0 0 0 
0 0 0 0 0 0 0 0 0 
1.61346e-09 0 0 0 0 0 0 0 0 
0 0 0 0 0 0 0 0 0 
0 0 0 0 0 0 0 0 0 
1.18005e-09 4.19726e-10 0 0 0 0 0 0 0 
0 0 0 0 0 0 0 0 0 
0 0 0 3.35047e-08 0 0 0 0 1.28569e-08 
0 0 0 0 0 0 0 0 0 
1.87891e-09 0 0 0 0 0 2.58773e-10 0 0 
0 0 0 0 0 0 0 0 1.1679e-09 
0 0 0 0 0 0 0 0 0 
0 0 0 0 0 0 0 0 0 
0 0 0 0 0 0 0 0 0 
0 0 0 0 0 0 0 0 0 
0 0 0 0 0 0 0 0 1.19104e-09 
1.08976e-09 0 0 0 0 0 0 0 0 
0 0 0 0 0 0 0 0 0 
0 1.32577e-09 0 2.74765e-09 1.86551e-08 0 0 0 0 
0 0 0 8.58751e-10 0 0 0 0 0 
0 0 0 0 0 0 0 0 1.07102e-09 
0 0 1.15731e-08 0 0 0 0 0 0 
0 0 0 0 0 0 0 0 0 
0 0 0 0 0 5.69649e-10 0 0 0 
0 0 0 0 0 0 0 0 2.34721e-08 
0 0 0 0 0 0 0 0 0 
0 0 0 0 7.32289e-10 0 0 0 0 
0 0 0 0 0 0 0 0 0 
0 0 0 0 0 0 0 0 0 
0 0 0 7.44642e-10 0 0 0 8.17776e-10 0 
0 0 0 0 0 0 0 0 0 
0 0 0 0 0 0 0 1.81501e-10 0 
0 0 0 0 0 6.71699e-10 0 0 0 
0 0 0 0 0 0 0 0 0 
0 1.44297e-09 0 0 0 0 0 0 0 
0 0 0 0 0 0 0 0 0 
0 0 0 0 0 0 0 0 0 
0 0 0 0 0 0 0 0 0 
0 0 0 4.94492e-10 0 0 0 0 0 
0 0 0 3.71671e-09 0 0 0 1.63196e-10 0 
0 0 0 0 0 0 0 0 0 
0 0 0 0 0 0 0 1.72675e-08 0 
0 0 0 0 0 0 0 0 0 
0 0 0 0 0 0 1.09866e-10 0 0 
0 0 0 0 0 0 0 0 0 
0 0 0 0 0 0 5.59705e-10 0 0 
0 0 0 0 0 0 0 0 0 
0 0 0 9.9303e-10 0 0 0 0 0 
0 0 0 0 0 0 0 0 0 
0 0 0 0 0 0 0 9.82013e-10 0 
0 0 0 0 0 0 0 0 0 
0 7.16703e-10 0 0 0 0 0 0 0 
0 0 4.75358e-10 6.09765e-10 0 0 0 0 0 
0 0 3.71339e-10 0 2.87396e-08 0 0 0 0 
0 0 0 0 0 0 0 0 0 
0 0 0 0 0 0 0 0 0 
0 0 0 0 0 0 0 4.41338e-10 0 
0 0 0 2.25739e-09 0 0 0 0 0 
0 0 0 0 0 0 0 4.65157e-10 0 
0 0 1.89444e-11 0 0 0 0 0 0 
0 0 2.48322e-09 0 0 0 1.48917e-10 8.64574e-11 2.12726e-08 
0 0 0 0 6.20823e-10 0 0 0 0 
0 0 0 0 0 0 0 0 0 
6.57721e-10 0 0 0 0 0 0 0 0 
0 0 0 0 0 0 0 0 0 
0 0 0 0 0 0 0 0 0 
6.82245e-10 0 0 0 8.54584e-10 0 0 0 0 
0 6.86349e-10 0 0 0 0 0 0 0 
0 0 0 0 0 0 0 
feature_3 1 2500 float
0 0 0 0 0 0 0 0 0 
0 0 0 0 0 1.06056e-10 0 0 0 
0 0 0 0 0 0 0 0 5.27777e-10 
0 0 0 0 0 0 0 0 0 
0 0 0 0 0 0 0 0 0 
0 0 0 0 0 9.96632e-10 0 0 0 
0 0 0 0 0 0 0 0 0 
1.21867e-09 0 0 0 0 0 0 0 0 
0 0 0 0 0 0 0 0 0 
0 0 0 0 0 0 0 0 0 
0 0 0 0 0 0 0 0 0 
0 0 0 0 0 0 0 0 0 
0 0 0 0 0 0 0 9.29138e-10 0 
0 0 0 8.82959e-10 0 0 1.43402e-09 0 0 
0 0 0 0 0 0 0 0 0 
0 0 0 1.36379e-09 0 0 0 0 0 
0 0 0 0 0 0 0 0 0 
0 0 0 0 0 0 0 0 0 
0 0 0 0 8.85774e-09 0 0 0 5.10063e-11 
0 0 0 0 0 0 0 0 0 
0 0 0 0 0 0 0 0 0 
0 0 0 0 0 0 0 0 0 
0 5.97527e-10 0 0 0 0 0 0 0 
0 0 0 0 0 0 0 0 0 
0 0 0 0 0 0 0 0 0 
0 0 0 0 0 0 0 0 0 
2.5517e-10 0 0 0 0 0 1.4751e-10 0 3.03395e-10 
8.25974e-10 0 0 0 0 0 3.95257e-10 0 0 
0 0 4.20656e-10 0 0 0 0 0 0 
0 0 0 0 0 0 0 0 0 
0 0 0 0 0 0 0 0 1.30364e-09 
0 0 0 0 0 0 0 0 0 
0 0 0 0 0 0 0 0 0 
0 0 0 0 0 0 0 0 0 
0 0 0 0 0 0 0 0 0 
0 0 0 0 0 0 0 0 0 
0 0 0 0 8.09237e-10 0 0 0 0 
0 0 0 0 0 0 0 0 0 
0 0 0 0 0 0 0 0 0 
0 0 0 0 7.49722e-10 0 0 0 0 
0 0 0 0 0 0 0 0 0 
0 0 0 0 0 0 0 0 0 
0 0 0 0 0 0 0 0 0 
0 0 0 0 0 0 0 0 0 
0 0 0 1.48641e-09 0 0 0 0 7.8245e-10 
0 0 0 0 0 0 0 0 0 
0 0 0 0 0 0 0 0 0 
6.99831e-10 0 0 0 0 0 0 0 0 
0 0 4.52221e-10 0 0 0 0 0 0 
0 0 0 0 0 0 0 0 0 
6.77208e-10 0 0 0 0 0 0 0 0 
0 0 0 0 0 0 0 0 0 
0 0 0 0 0 0 0 0 4.11095e-10 
0 0 0 0 0 0 0 0 0 
0 0 0 0 0 0 0 0 0 
0 0 0 0 0 0 0 0 0 
0 0 0 0 0 0 0 0 0 
0 0 0 0 0 0 0 0 2.0572e-11 
0 0 0 0 0 0 0 0 0 
0 0 0 0 0 0 0 0 0 
0 0 0 0 1.51614e-09 0 0 8.21457e-10 0 
0 0 0 0 0 0 0 0 0 
0 0 0 0 0 0 0 0 0 
0 0 0 0 0 0 0 0 0 
0 0 0 0 0 0 0 0 0 
0 0 0 0 0 0 0 0 0 
0 0 0 0 0 0 0 0 0 
0 0 0 0 0 0 0 0 0 
0 0 0 0 0 0 5.35177e-10 0 0 
0 0 0 0 0 0 0 0 0 
0 0 0 0 0 0 0 0 0 
0 0 0 0 0 0 0 0 0 
0 0 0 1.23288e-09 0 0 0 0 0 
0 0 0 0 0 0 0 0 0 
1.12142e-09 0 0 0 0 0 0 0 0 
0 0 0 0 0 0 0 0 0 
0 0 0 0 0 0 1.28884e-09 0 0 
0 0 0 0 0 0 3.3106e-11 1.40103e-09 0 
0 0 0 0 0 0 0 0 0 
1.48064e-09 0 0 0 0 0 0 0 0 
0 0 0 0 0 8.05702e-10 0 0 0 
0 0 0 0 0 0 5.64519e-10 0 0 
0 0 0 0 4.84045e-10 0 0 0 0 
0 0 0 0 0 0 0 0 0 
0 0 0 0 0 0 0 0 0 
0 0 0 1.56982e-09 0 0 0 0 0 
0 0 0 0 0 0 0 0 0 
0 0 0 0 0 0 0 0 0 
9.99609e-10 0 0 0 0 0 0 0 0 
0 0 0 0 0 0 0 0 0 
0 0 0 0 0 0 0 0 0 
0 0 0 0 0 0 0 0 0 
0 0 0 0 0 0 0 0 0 
0 0 0 0 0 0 0 0 2.71692e-10 
0 1.01376e-09 0 0 0 0 0 0 8.86782e-10 
0 0 0 0 0 0 1.36634e-10 0 0 
0 0 0 0 0 0 0 0 0 
0 0 0 0 0 0 0 0 0 
0 0 0 0 1.02402e-07 0 0 0 0 
0 0 0 0 0 0 0 0 0 
0 0 0 0 0 0 0 0 0 
0 0 0 0 0 0 0 0 0 
0 0 9.00801e-10 0 0 0 9.00958e-10 0 0 
0 0 0 0 0 0 0 0 0 
0 0 0 0 0 0 0 0 0 
0 1.00665e-09 0 4.04635e-10 0 0 0 0 0 
8.86825e-10 1.57664e-10 0 0 0 0 0 0 0 
0 0 0 0 0 0 0 0 0 
0 0 0 0 0 7.37533e-10 0 0 0 
0 0 0 0 0 0 0 0 0 
0 0 0 0 0 0 0 0 0 
1.08307e-09 0 0 0 0 1.15041e-09 0 0 0 
0 0 0 0 0 0 0 0 0 
3.66533e-11 0 0 0 0 0 1.23185e-10 0 0 
0 0 0 0 0 0 0 0 0 
0 0 0 0 0 0 0 0 0 
0 0 0 0 0 0 0 0 0 
1.12103e-09 0 0 0 0 0 0 0 0 
0 0 0 0 0 0 0 0 0 
0 0 0 0 0 0 0 0 0 
0 0 0 0 0 0 0 0 0 
0 0 0 0 0 0 9.84048e-10 1.19357e-09 0 
0 0 2.99349e-08 0 0 0 0 0 0 
0 0 0 0 0 0 3.41394e-10 0 0 
0 0 0 0 2.77961e-09 0 0 0 0 
0 0 5.71824e-09 0 0 0 0 0 0 
0 0 0 0 0 0 0 0 0 
0 0 0 0 0 0 0 0 1.39074e-09 
0 8.72348e-10 0 0 0 0 0 0 0 
0 0 0 0 0 0 0 0 7.18002e-10 
0 0 0 0 2.70184e-11 0 0 0 0 
0 0 0 0 0 0 0 0 0 
0 0 0 0 0 0 0 0 0 
0 0 0 0 0 0 0 0 0 
0 0 0 4.01627e-10 0 0 0 0 0 
0 0 0 0 0 0 0 0 0 
0 0 0 0 0 0 0 0 0 
0 0 0 0 0 0 0 0 0 
0 0 0 0 0 0 0 0 7.35927e-10 
0 0 0 0 0 0 0 0 0 
0 0 0 0 0 0 0 0 0 
0 0 0 0 0 0 0 0 0 
2.29675e-10 0 0 0 0 0 0 0 0 
0 0 0 0 0 0 0 0 0 
0 0 0 0 1.05035e-09 2.00312e-08 0 0 2.21227e-08 
0 0 0 0 0 0 0 4.94133e-10 0 
0 1.63178e-08 0 0 0 0 0 0 0 
0 9.81245e-10 0 0 0 0 0 0 0 
0 0 0 0 0 0 0 0 0 
0 0 0 0 0 0 0 0 0 
0 0 0 0 0 0 0 0 8.38472e-10 
0 0 0 0 0 5.01977e-10 0 0 0 
0 0 0 0 0 0 0 0 0 
0 0 0 0 0 2.55771e-10 0 0 0 
0 0 0 0 0 0 0 0 0 
0 1.00004e-09 0 0 0 0 0 0 0 
0 0 0 0 0 0 0 0 0 
0 0 0 0 0 0 0 0 3.83633e-10 
0 0 0 0 0 0 0 0 0 
0 0 0 0 0 0 0 0 0 
0 0 0 0 0 0 0 4.54083e-10 0 
0 0 0 0 0 0 0 0 0 
0 0 7.46756e-10 0 0 0 8.96971e-12 0 0 
0 0 0 0 0 0 0 0 0 
0 0 0 0 0 0 0 0 0 
0 0 0 0 0 0 0 0 0 
0 0 0 0 0 0 0 0 0 
0 0 0 0 0 0 0 1.07215e-09 0 
0 0 0 0 0 0 0 0 0 
0 0 0 0 0 0 0 0 0 
0 0 0 0 0 0 0 0 0 
0 0 0 0 0 0 0 0 0 
0 3.8096e-10 0 0 0 0 0 0 0 
0 0 0 9.63407e-10 0 0 0 0 0 
0 0 0 0 0 0 0 0 0 
0 0 0 0 0 0 0 0 0 
0 0 1.45626e-11 0 0 0 0 0 0 
0 0 0 0 0 0 0 0 0 
0 0 0 0 5.87523e-10 0 0 0 0 
0 1.06228e-10 0 0 0 0 0 0 0 
0 0 0 0 2.4309e-10 1.07108e-09 0 0 0 
0 8.2311e-11 0 0 0 0 0 5.38318e-10 0 
0 0 0 0 0 4.72205e-10 0 0 0 
0 0 0 0 0 0 0 0 0 
0 0 0 0 0 0 0 0 0 
7.49679e-10 0 9.438e-10 0 0 0 0 0 0 
0 3.92935e-10 2.47365e-10 0 0 0 0 0 0 
0 0 0 0 0 0 0 0 0 
0 0 0 5.37099e-10 0 2.36849e-10 0 0 0 
0 0 0 0 0 0 0 0 0 
0 0 0 0 0 0 0 6.0837e-10 0 
0 0 0 0 0 0 0 0 0 
0 0 0 3.74611e-10 0 0 0 0 0 
0 0 0 0 0 0 0 0 0 
0 0 0 0 0 0 0 0 0 
0 0 0 0 1.51423e-09 0 0 0 0 
0 0 0 0 0 0 0 1.14834e-09 0 
0 0 9.52451e-10 0 0 0 0 0 0 
2.7926e-08 0 0 0 0 0 0 1.39373e-10 0 
0 0 0 9.1757e-10 0 0 0 0 0 
1.48395e-08 0 0 0 0 0 0 0 0 
0 0 0 0 0 0 0 0 0 
0 0 0 9.27951e-11 0 0 0 0 1.02205e-09 
0 0 0 0 0 0 0 0 0 
0 0 0 0 0 0 0 0 0 
0 0 0 0 0 0 0 0 0 
0 0 0 0 0 4.16165e-10 0 0 0 
0 0 0 0 0 0 0 0 0 
0 0 0 4.12825e-12 0 0 0 0 0 
0 0 0 0 0 0 0 0 0 
0 0 0 0 0 0 0 0 0 
0 0 0 0 0 0 0 0 0 
0 0 0 0 0 0 0 0 0 
0 0 0 0 0 0 0 0 0 
0 0 0 0 0 0 0 0 0 
0 0 0 0 0 1.21714e-09 0 0 0 
0 0 0 0 0 0 0 0 0 
0 0 0 0 0 5.38034e-10 0 0 0 
0 0 0 0 0 6.97451e-10 0 0 0 
0 0 0 0 0 0 0 0 0 
0 0 0 0 0 0 0 0 0 
0 0 0 0 0 0 0 1.01671e-09 0 
0 0 0 9.8402e-10 0 0 0 0 0 
0 0 0 0 0 0 0 0 1.00366e-10 
0 0 0 0 0 0 0 0 0 
0 0 0 0 0 0 0 0 1.42753e-09 
0 0 0 0 0 0 0 0 0 
0 0 1.61862e-11 0 0 0 0 0 0 
0 0 0 0 0 0 0 0 0 
2.2926e-10 0 0 0 0 0 0 0 0 
0 7.34968e-10 0 0 0 4.73368e-10 0 0 0 
0 0 0 0 0 0 0 0 0 
5.26146e-10 0 0 0 0 8.46331e-10 0 0 0 
0 0 0 0 0 0 0 0 0 
0 0 0 0 0 0 0 0 0 
0 0 0 0 0 0 0 0 0 
0 0 0 0 0 0 0 0 0 
0 0 0 0 0 0 0 0 0 
0 0 0 0 0 0 0 0 0 
0 1.34674e-09 0 0 0 0 0 0 0 
0 0 0 0 0 0 0 1.03271e-09 0 
0 4.60961e-10 0 0 0 0 0 0 6.48424e-10 
0 0 0 0 0 0 0 0 0 
0 0 0 0 0 0 0 0 0 
0 0 0 0 0 0 0 0 0 
0 0 0 0 0 0 0 0 8.83194e-10 
0 0 0 0 0 0 0 0 0 
0 0 7.40627e-10 0 0 0 0 0 0 
0 0 0 0 0 0 0 0 0 
0 0 0 0 0 0 0 0 0 
1.3221e-08 0 0 0 0 0 0 0 0 
0 0 0 0 0 0 0 0 0 
0 0 0 0 0 0 0 0 0 
0 0 0 0 0 0 0 4.99668e-10 0 
0 0 0 0 0 0 0 0 0 
0 0 0 0 0 0 0 0 0 
0 0 0 0 0 0 0 0 0 
0 0 1.40247e-09 0 0 0 0 0 0 
0 0 0 0 0 0 0 0 0 
0 0 0 0 0 0 0 0 0 
0 0 0 0 0 0 0 0 0 
0 0 0 0 0 0 0 0 0 
0 0 0 0 0 0 0 0 5.85651e-10 
0 0 8.9085e-10 0 0 0 0 0 0 
0 0 0 0 0 0 0 0 0 
0 0 0 0 0 0 0 0 0 
0 0 0 0 0 0 0 0 0 
0 0 0 0 0 0 0 0 0 
0 0 0 0 0 0 0 0 0 
0 0 0 0 0 0 0 0 0 
9.15694e-10 0 0 0 0 0 0 0 0 
0 0 7.28726e-10 0 0 0 0 0 0 
0 9.76772e-10 0 0 0 0 0 0 0 
0 0 0 0 0 0 0 0 0 
0 0 0 0 0 0 0 9.25674e-10 0 
0 2.14838e-08 1.02549e-09 0 0 6.57089e-10 0 0 0 
0 0 0 0 0 0 0 0 0 
0 0 0 0 0 0 0 
feature_4 1 2500 float
0 0 0 0 0 0 0 0 0 
0 1.07318e-09 0 9.79529e-10 0 0 0 0 0 
0 0 0 1.06818e-09 0 0 1.01297e-09 0 0 
0 0 0 0 0 0 0 0 0 
0 0 0 0 0 0 0 0 0 
0 0 0 0 0 0 7.1223e-10 0 0 
0 0 0 0 0 0 0 0 0 
0 0 0 0 0 0 0 0 0 
0 0 0 2.14646e-11 0 0 0 0 0 
0 0 0 0 0 0 0 0 0 
0 0 0 0 0 0 0 0 0 
0 0 1.00193e-09 0 0 0 0 0 0 
0 0 0 0 0 0 0 0 0 
0 0 0 0 0 0 0 0 0 
0 5.80567e-10 0 0 0 0 0 0 8.929e-10 
0 0 0 0 0 0 0 0 0 
0 1.23188e-09 0 0 0 9.08653e-10 9.62835e-10 0 0 
0 0 0 0 0 0 0 0 0 
0 0 0 0 0 0 0 0 0 
0 0 0 0 0 0 0 0 0 
0 0 0 0 0 2.69432e-10 0 0 0 
0 0 0 0 0 0 0 0 4.95977e-10 
0 0 0 0 0 0 0 0 0 
0 0 0 0 0 0 0 0 0 
0 0 0 0 0 0 0 0 0 
0 0 0 0 0 0 0 0 0 
0 0 0 0 0 0 0 0 0 
5.82439e-10 0 0 0 0 0 0 0 0 
0 0 0 0 0 0 0 0 0 
0 0 1.46075e-10 0 0 0 0 0 0 
0 0 0 0 0 0 0 0 0 
0 0 8.52761e-10 0 0 4.88448e-10 0 0 0 
0 0 0 0 0 0 0 0 0 
0 0 0 0 0 0 0 0 0 
0 0 0 0 0 0 0 0 0 
0 0 0 0 0 0 0 8.44835e-10 0 
0 0 0 0 0 0 0 0 0 
0 0 1.03608e-10 0 0 0 0 0 0 
0 0 9.66306e-10 0 0 0 0 0 0 
0 0 0 0 0 0 0 0 0 
0 0 0 0 0 0 0 0 0 
0 0 0 0 0 0 0 0 0 
0 0 0 0 0 0 0 0 0 
0 3.13506e-10 0 0 0 0 0 0 0 
0 0 0 0 0 0 8.86839e-10 0 0 
0 0 0 0 0 0 0 0 0 
0 0 0 0 0 0 0 0 0 
0 0 0 0 0 0 0 0 1.08717e-09 
0 0 0 0 1.37094e-09 0 0 0 0 
0 0 0 0 0 0 0 0 0 
0 0 0 0 0 0 0 0 0 
0 0 0 5.73309e-10 0 0 0 0 0 
0 0 0 0 0 0 0 1.14504e-11 0 
0 0 0 7.20963e-10 0 0 0 0 0 
0 0 0 0 0 0 0 0 0 
0 0 0 0 0 0 0 0 0 
0 0 0 0 0 4.56087e-10 0 0 0 
0 0 0 0 0 0 0 0 0 
0 9.31092e-10 0 0 0 0 1.34568e-10 0 0 
0 0 0 3.12326e-10 0 0 0 0 0 
0 0 0 0 0 0 0 0 0 
0 0 0 0 0 0 0 0 0 
0 0 0 0 0 0 9.91452e-10 0 0 
0 0 0 0 0 0 0 0 0 
0 0 0 0 0 0 0 0 0 
0 0 0 0 0 0 0 0 0 
0 0 2.50367e-10 0 0 0 0 0 0 
0 0 6.49578e-10 0 0 0 0 0 0 
0 0 0 0 0 0 0 0 0 
0 0 0 0 0 0 0 0 0 
0 0 9.06081e-10 0 0 0 0 0 0 
0 0 0 0 0 0 0 0 0 
0 0 0 0 0 0 0 0 0 
0 0 0 0 0 0 0 0 0 
0 0 0 0 0 0 0 0 0 
0 0 0 0 0 0 0 0 0 
0 0 0 0 0 0 0 0 0 
0 0 0 0 0 0 0 0 0 
0 0 0 0 0 0 0 0 0 
0 0 0 0 0 0 0 0 0 
0 0 0 0 0 0 0 0 0 
0 0 0 0 0 0 0 9.45818e-10 6.5854e-10 
0 0 0 0 0 0 0 0 0 
0 0 0 0 0 0 0 0 0 
0 0 0 0 0 0 0 0 0 
0 0 0 0 0 0 0 0 0 
0 0 0 0 0 0 0 0 0 
0 0 0 0 0 0 0 0 0 
0 0 0 0 0 0 0 0 0 
1.74179e-10 0 0 0 0 0 0 0 0 
0 0 2.59384e-11 6.85795e-10 0 0 0 0 0 
0 0 0 0 0 0 0 0 0 
0 0 0 0 0 0 0 0 0 
0 0 0 0 0 0 0 0 0 
0 0 0 0 0 0 0 0 0 
0 0 0 0 0 0 0 0 0 
0 0 0 0 0 0 0 0 0 
0 0 0 0 0 0 0 0 0 
2.6084e-10 0 0 0 0 0 0 0 9.01302e-10 
0 0 0 0 0 0 0 0 0 
0 0 0 0 0 0 9.91943e-10 0 0 
0 0 0 0 0 0 0 0 0 
0 2.2145e-10 0 0 0 0 0 0 0 
1.09108e-09 0 0 0 0 0 0 0 0 
0 0 0 0 0 0 0 0 0 
0 0 0 0 0 0 0 0 0 
0 0 0 0 0 0 0 0 0 
0 0 5.88642e-10 0 0 0 0 0 1.41294e-09 
0 0 0 0 0 0 0 0 0 
0 0 4.86846e-10 0 0 0 0 0 0 
0 0 0 0 0 0 0 0 0 
0 0 0 1.16757e-09 0 0 0 0 0 
0 0 0 0 0 0 0 0 0 
0 0 0 0 0 0 0 0 0 
0 0 0 0 0 0 0 0 0 
0 0 0 0 0 0 0 0 0 
0 0 0 0 0 0 0 0 0 
0 0 0 0 0 0 0 0 0 
0 0 0 0 0 0 0 0 0 
0 0 0 0 0 0 1.14923e-09 1.42623e-09 0 
0 0 0 0 0 0 0 0 0 
0 0 0 0 0 0 0 8.54968e-10 0 
0 0 0 0 0 0 0 0 0 
0 0 0 0 0 0 0 0 0 
0 0 0 0 0 0 0 0 0 
0 0 0 0 9.17613e-11 0 0 0 0 
0 0 0 0 0 0 0 0 0 
0 0 0 0 0 0 0 0 0 
0 2.78462e-10 0 0 0 0 0 0 0 
0 0 0 0 0 0 0 0 0 
0 0 0 0 0 0 0 0 0 
0 0 0 0 0 0 0 0 0 
0 0 0 8.06306e-11 7.60991e-11 0 0 0 0 
0 0 0 0 0 0 0 0 0 
0 0 0 0 0 0 0 2.88065e-10 0 
0 0 0 0 0 0 0 7.22441e-10 0 
0 0 0 0 0 0 0 0 0 
0 0 0 0 0 0 0 0 0 
0 0 0 0 0 0 0 0 0 
0 0 0 0 0 0 0 0 0 
0 1.38567e-09 0 0 0 3.087e-10 0 0 0 
0 0 0 0 0 0 0 0 0 
0 0 0 0 0 0 0 0 0 
0 6.76824e-10 0 0 0 0 0 6.79272e-10 0 
0 0 0 0 0 0 0 0 0 
0 0 0 0 0 0 0 0 0 
0 0 0 0 0 0 0 0 0 
0 0 0 0 0 0 5.03618e-10 0 0 
0 0 0 0 0 0 0 0 0 
0 0 0 0 0 0 0 0 9.93722e-10 
0 0 0 0 0 0 0 0 0 
0 0 0 1.19973e-09 0 0 0 0 0 
0 0 0 0 0 0 0 0 0 
0 0 0 0 0 0 0 0 0 
0 0 0 0 0 0 1.23791e-09 0 0 
0 0 0 0 0 0 0 4.86047e-10 0 
0 0 0 0 0 0 0 0 0 
0 0 0 1.34136e-09 4.80409e-10 0 0 0 0 
0 0 0 0 0 0 0 0 0 
0 0 0 0 0 0 0 0 0 
0 0 0 0 0 0 0 0 0 
0 0 0 0 0 0 0 0 0 
0 5.00863e-10 0 0 0 0 0 0 0 
0 0 0 0 0 0 0 0 0 
0 0 0 0 0 0 0 0 0 
0 0 0 0 0 0 0 0 0 
0 0 0 0 0 0 0 0 0 
0 0 0 0 0 0 0 0 0 
0 0 0 0 0 0 0 0 0 
0 0 0 0 0 0 0 0 0 
0 0 0 0 0 0 0 0 0 
0 9.55282e-10 0 0 0 0 7.12232e-10 0 0 
0 0 0 0 0 0 0 0 0 
0 0 0 0 0 0 0 0 0 
0 0 0 0 0 0 0 5.45805e-10 0 
0 1.07678e-09 0 0 0 0 1.211e-09 0 0 
1.16834e-09 0 0 0 0 0 0 4.80286e-10 0 
0 0 0 0 0 0 0 0 0 
0 0 0 0 0 0 0 0 0 
0 0 0 0 0 0 0 0 0 
0 8.99689e-11 0 0 0 0 5.67786e-10 0 0 
0 0 0 0 0 0 0 0 0 
0 0 0 0 0 0 0 0 0 
0 0 0 0 0 0 0 0 0 
0 0 0 0 0 0 0 0 0 
0 0 0 0 0 0 0 0 0 
7.89694e-10 0 0 0 0 0 0 0 0 
0 0 0 0 0 0 0 0 0 
0 0 0 0 0 0 0 1.03142e-09 0 
0 0 0 0 0 0 0 0 0 
0 0 0 0 0 0 0 0 0 
0 0 0 0 0 1.12959e-09 0 0 0 
0 1.3115e-10 0 0 0 0 0 0 0 
0 0 0 0 1.16447e-09 0 7.86407e-10 0 0 
0 0 0 0 0 0 0 0 0 
0 0 0 0 0 0 0 0 0 
0 0 0 0 0 0 0 0 0 
0 0 0 0 0 0 0 0 0 
0 0 0 0 0 0 0 0 0 
0 0 0 0 0 0 0 0 0 
0 0 0 0 0 0 0 0 0 
0 0 0 0 0 0 0 0 0 
7.76616e-10 0 0 0 0 0 9.04485e-11 0 0 
0 0 0 3.38368e-10 0 0 0 0 0 
0 0 0 0 0 0 0 1.27026e-10 0 
0 0 0 0 0 0 0 0 0 
0 0 0 0 0 0 0 0 0 
0 0 0 0 0 0 0 0 0 
0 0 0 0 0 0 0 0 0 
1.18501e-09 0 3.01029e-10 5.72186e-10 0 0 0 0 0 
0 0 0 0 0 0 0 0 0 
0 0 0 0 0 0 0 0 0 
0 0 0 1.56202e-10 0 0 0 0 0 
0 0 0 0 0 0 7.96287e-10 0 0 
0 0 0 0 0 0 0 0 0 
0 0 0 0 0 0 0 0 0 
0 0 0 0 0 0 0 0 0 
0 0 0 0 0 0 0 0 0 
0 0 0 0 0 0 0 0 0 
0 0 0 0 0 0 0 0 0 
0 0 0 0 0 0 0 0 0 
0 0 0 0 0 0 0 0 0 
0 0 0 0 0 0 0 0 0 
0 0 0 0 0 0 0 0 0 
0 0 5.09122e-10 0 0 0 0 0 0 
0 0 0 0 0 0 0 0 0 
0 0 0 0 0 0 0 0 0 
0 0 0 0 0 0 0 0 0 
6.17057e-10 0 0 0 0 0 0 9.24061e-10 0 
0 0 0 0 0 0 0 0 0 
0 0 0 0 0 0 0 0 0 
4.81471e-10 0 0 0 1.09549e-09 0 0 0 0 
0 0 0 0 0 0 0 0 0 
0 0 0 0 0 0 0 0 0 
0 0 0 0 0 0 0 0 0 
0 0 0 8.03491e-10 0 0 1.08443e-09 0 0 
0 0 0 4.96293e-10 0 0 0 0 0 
0 0 0 0 0 0 0 0 0 
0 0 0 0 0 2.1348e-10 1.74779e-10 0 0 
0 0 0 0 0 0 0 9.00286e-10 0 
0 0 0 4.11568e-10 0 0 0 0 0 
0 0 0 0 0 8.59121e-10 0 0 0 
0 0 1.72875e-10 0 0 0 0 0 0 
0 0 0 0 0 0 0 1.43215e-09 0 
0 0 0 0 0 0 0 0 0 
0 0 0 0 0 0 0 0 0 
0 0 8.60464e-10 0 0 0 0 0 0 
0 0 0 0 0 0 0 0 0 
0 0 0 0 0 0 0 0 0 
0 0 1.27483e-09 0 0 0 0 0 0 
0 0 0 0 0 0 0 0 0 
0 0 0 0 0 0 6.59629e-10 0 0 
0 0 0 0 0 9.58195e-10 0 0 0 
7.85004e-10 0 0 0 0 0 0 0 0 
0 0 0 0 1.15567e-09 0 0 0 0 
0 0 0 0 0 0 0 0 0 
0 0 0 0 0 0 0 0 0 
0 0 0 0 0 0 0 0 0 
0 5.07857e-10 0 1.01391e-09 0 0 0 0 0 
0 0 0 9.33234e-10 0 0 0 0 0 
0 0 0 0 0 0 0 0 0 
0 0 0 0 0 0 0 0 0 
0 0 5.44048e-10 0 0 0 0 0 0 
0 0 0 0 0 0 0 0 0 
0 0 0 0 0 0 0 0 0 
0 0 3.23216e-10 0 0 0 0 0 0 
0 0 0 0 0 0 0 0 0 
0 0 0 0 0 0 9.74641e-10 0 0 
0 0 0 0 0 0 0 1.28751e-09 0 
0 0 0 0 0 0 0 0 0 
0 0 0 0 0 0 0 0 0 
0 0 0 0 0 0 0 0 0 
0 0 0 0 0 9.42816e-10 0 0 0 
0 1.43819e-09 0 0 0 0 0 0 0 
0 0 0 0 0 0 0 0 0 
0 0 0 0 0 1.24912e-09 0 0 0 
0 0 0 0 0 0 0 0 0 
0 0 0 0 0 0 0 
feature_5 1 2500 float
0 0 0 0 0 0 0 0 0 
0 0 0 0 0 0 0 0 0 
0 0 0 0 0 0 0 0 0 
0 0 0 0 0 0 8.24549e-10 0 0 
5.91111e-10 0 0 0 0 1.15913e-09 0 0 0 
0 0 0 0 0 0 0 0 0 
0 1.16486e-09 0 0 0 0 0 0 0 
0 0 0 0 0 0 0 0 0 
0 0 0 0 0 0 0 0 0 
0 0 0 0 0 0 0 1.35124e-09 0 
0 0 8.39485e-10 0 0 0 0 0 0 
3.30971e-08 0 1.60315e-09 0 0 0 0 0 0 
0 0 5.57197e-10 0 1.75444e-10 0 0 0 0 
0 0 0 0 0 0 0 0 0 
0 0 0 0 0 0 0 0 0 
0 0 0 0 0 0 9.01789e-10 0 0 
0 0 0 0 0 0 0 0 7.41309e-10 
0 0 0 0 0 0 4.72728e-10 0 0 
0 0 0 0 0 0 0 0 0 
0 0 0 0 0 0 0 0 0 
0 0 0 0 0 0 7.13925e-10 0 0 
0 0 0 3.07882e-08 0 0 8.28088e-10 0 2.46175e-08 
0 0 5.9784e-10 7.6901e-10 0 0 0 0 0 
0 0 0 0 0 0 0 0 0 
0 0 1.40111e-08 0 0 0 0 0 0 
0 0 0 0 0 0 0 0 1.12431e-09 
0 0 0 0 0 0 0 0 0 
0 0 1.45925e-08 0 0 0 0 0 0 
0 0 0 0 0 0 0 5.94333e-10 0 
0 0 0 0 0 0 0 0 0 
0 0 0 0 0 0 0 0 0 
0 0 0 0 0 0 0 3.40609e-10 0 
0 0 0 0 1.20773e-09 0 0 0 0 
0 0 0 1.94218e-10 0 0 0 0 0 
0 0 0 0 0 0 0 0 0 
0 0 0 0 0 0 0 0 0 
0 0 0 0 0 0 0 0 0 
0 0 0 0 0 0 0 1.3822e-08 0 
0 0 0 9.53293e-10 0 0 0 0 0 
0 0 0 0 0 0 0 0 0 
0 6.2013e-10 0 0 0 0 0 0 0 
6.04988e-10 0 0 0 0 0 0 0 0 
0 0 0 0 0 0 0 0 2.79341e-10 
6.49727e-10 0 0 0 1.19937e-09 0 0 0 0 
0 0 0 0 0 0 1.83253e-08 0 0 
0 0 0 1.27344e-07 0 0 0 0 3.90476e-09 
0 0 0 1.33073e-09 0 3.57659e-10 0 0 0 
0 0 0 0 0 0 0 0 9.87967e-10 
0 0 0 0 0 0 0 0 0 
0 0 0 0 0 0 0 0 0 
0 0 0 0 0 0 0 0 0 
0 1.3316e-09 0 0 5.05501e-10 0 0 0 0 
0 0 0 0 0 0 0 0 0 
0 0 0 0 0 0 0 0 0 
0 0 0 0 0 0 0 0 0 