# vtk DataFile Version 5.1
vtk output
ASCII
DATASET STRUCTURED_POINTS
DIMENSIONS 50 50 1
SPACING 1 1 1
ORIGIN 0 0 0
POINT_DATA 2500
FIELD FieldData 6
feature_1 1 2500 float
0 0 0 0 9.47914e-10 0 0 0 0 
0 0 0 0 0 0 0 0 0 
0 0 0 0 0 0 8.1636e-10 0 0 
0 0 0 0 0 0 0 0 0 
0 0 0 0 0 0 0 0 1.02478e-10 
0 0 0 0 0 0 0 0 0 
0 0 6.31225e-10 0 5.52476e-11 0 0 0 0 
0 0 0 0 0 0 0 0 0 
0 0 0 0 0 0 0 0 0 
0 0 0 0 0 0 0 0 0 
0 0 0 7.36868e-10 0 0 0 8.15973e-10 6.06178e-10 
0 0 0 0 0 0 0 0 0 
0 0 0 0 0 0 0 0 0 
0 0 0 0 0 0 0 0 0 
0 0 0 0 0 0 0 0 0 
0 0 0 0 0 0 0 0 0 
0 4.24727e-10 0 0 0 0 0 0 0 
0 0 5.2551e-10 0 0 0 0 0 0 
0 0 0 0 0 0 0 0 0 
0 0 0 0 0 0 0 0 0 
0 0 0 0 0 0 0 0 0 
0 0 0 0 0 0 0 0 0 
0 0 0 0 0 0 0 0 0 
0 0 0 0 0 0 0 0 0 
0 0 0 0 0 0 0 4.09173e-10 3.29788e-10 
0 0 0 0 0 0 0 0 0 
0 0 0 0 0 0 0 0 0 
0 0 0 0 0 0 0 0 4.22393e-10 
0 0 0 0 0 0 0 0 0 
0 0 0 0 0 0 0 0 0 
0 0 0 0 0 0 0 0 0 
0 0 0 5.23915e-10 0 0 0 0 0 
0 0 0 0 0 0 0 0 0 
0 0 0 0 0 0 0 0 0 
0 6.35005e-10 0 0 0 0 0 0 0 
0 0 0 2.93943e-10 0 0 0 0 0 
0 0 0 0 0 0 0 0 0 
0 0 0 0 0 5.88578e-11 0 0 0 
0 0 0 0 0 0 0 0 0 
0 0 0 0 0 0 0 7.70914e-10 0 
0 0 0 0 0 0 0 0 2.72131e-08 
6.08885e-10 0 0 0 0 0 0 0 6.77245e-06 
5.10407e-08 0 0 0 0 0 0 0 0 
0 0 0 0 0 0 0 0 0 
0 0 0 0 0 0 0 0 0 
0 0 0 6.78026e-06 0 0 0 0 0 
0 0 0 0 6.79204e-06 0 0 0 0 
0 0 0 0 0 0 0 0 0 
0 3.36669e-10 0 0 0 0 0 0 0 
0 0 0 0 0 0 0 0 0 
0 0 0 0 0 0 0 0 4.66613e-11 
0 0 0 0 0 0 0 0 2.94388e-08 
0 0 0 0 0 0 0 0 0 
0 0 2.39943e-09 0 0 0 0 0 0 
0 0 0 0 0 0 0 0 0 
0 0 0 0 0 0 0 0 0 
2.25683e-10 0 0 0 0 0 0 0 0 
0 0 0 7.18712e-06 0 9.61187e-11 0 0 0 
0 0 0 0 0 0 0 0 0 
0 0 3.11086e-08 0 7.22533e-10 0 0 0 0 
6.87231e-06 0 0 0 0 6.58993e-10 0 0 0 
0 0 0 0 6.14268e-10 0 0 0 0 
0 0 7.19066e-06 0 0 7.02467e-06 0 7.35828e-06 4.32546e-10 
0 0 0 2.94019e-10 0 0 0 0 0 
0 0 0 0 0 0 8.09835e-06 8.39574e-06 0 
0 3.77101e-08 6.88826e-06 0 0 3.35239e-08 0 0 0 
0 0 0 0 0 0 0 0 0 
0 0 0 0 0 6.10975e-08 7.16814e-06 0 0 
0 0 0 0 0 0 0 0 0 
0 0 0 0 3.06343e-10 0 0 0 0 
0 1.2254e-09 0 0 7.25375e-06 0 0 3.4934e-08 0 
6.93534e-06 0 0 0 0 0 0 0 0 
0 0 0 6.14339e-10 0 0 0 0 0 
0 1.51722e-08 0 0 0 0 0 0 0 
0 0 0 0 0 0 0 0 6.80438e-06 
0 0 6.81045e-06 0 0 0 0 0 0 
0 4.22041e-10 0 0 0 0 0 0 0 
0 0 8.23221e-10 0 0 0 0 0 0 
0 0 0 0 0 2.98254e-10 0 0 0 
0 0 0 0 0 0 0 0 0 
0 0 0 0 2.23232e-08 0 0 5.32581e-08 0 
0 0 0 0 0 0 0 0 0 
0 0 0 0 0 0 0 0 0 
0 0 0 0 0 0 0 0 0 
0 0 2.43642e-10 0 0 6.91648e-06 0 2.59759e-07 7.38932e-06 
0 0 0 0 0 0 0 0 0 
0 0 0 0 0 0 0 6.87014e-06 6.57814e-08 
0 0 0 0 0 0 0 0 0 
0 0 0 0 0 0 0 0 1.14262e-09 
0 0 0 0 0 0 0 0 0 
0 4.75175e-08 0 7.63994e-06 0 0 0 0 0 
4.19853e-10 1.68951e-08 6.79934e-06 3.18584e-08 0 0 0 4.17181e-10 0 
0 0 0 0 5.75551e-08 0 0 0 0 
0 0 0 0 0 0 0 0 0 
0 0 0 0 0 0 0 0 0 
0 0 0 2.92539e-10 0 0 0 0 0 
7.45474e-06 0 0 7.16985e-09 0 1.25342e-09 0 0 0 
0 0 2.20288e-08 0 0 0 8.32839e-09 0 0 
0 0 0 0 6.12038e-07 0 0 0 0 
2.4745e-10 0 2.42615e-11 3.23976e-10 0 0 0 5.72754e-10 0 
4.31148e-10 0 0 8.84619e-10 0 0 0 0 0 
0 0 6.83927e-06 0 0 0 3.90445e-08 0 0 
0 0 0 0 0 0 0 0 6.97808e-06 
0 0 0 0 0 8.10849e-06 0 0 7.50104e-06 
0 7.56081e-06 0 0 0 0 5.42737e-10 0 0 
0 0 0 0 0 0 0 0 0 
0 0 0 0 0 0 0 0 0 
0 0 7.07963e-06 0 7.22917e-06 7.40815e-08 8.6033e-06 9.30489e-06 0 
0 0 0 4.90067e-08 0 0 0 0 0 
0 5.634e-08 0 0 0 7.99614e-06 0 0 0 
0 0 0 0 0 0 0 0 0 
0 0 0 6.48292e-10 0 0 0 0 0 
0 0 0 0 0 0 0 0 0 
0 0 0 8.41394e-06 4.27603e-08 9.09022e-10 0 0 0 
0 0 0 0 0 0 0 0 7.4179e-06 
0 0 7.43903e-06 0 0 0 0 0 0 
0 0 0 0 0 0 0 0 0 
0 0 0 0 0 0 0 0 0 
0 0 0 0 0 0 0 0 3.13362e-08 
0 0 0 0 0 0 0 0 0 
0 7.09002e-06 0 7.53789e-06 0 0 0 2.94537e-08 0 
0 0 0 0 0 0 0 0 0 
0 0 0 0 0 0 0 0 2.5237e-08 
8.01406e-06 8.01949e-06 0 0 0 0 0 6.78882e-06 0 
0 0 0 0 1.99876e-08 0 0 0 0 
0 0 0 0 0 0 0 0 6.98891e-08 
0 0 0 0 0 0 0 0 0 
0 0 0 0 0 0 0 0 0 
0 0 0 0 1.62223e-08 0 0 0 0 
0 0 0 4.42472e-08 0 0 3.19287e-08 6.86397e-06 0 
0 0 0 0 0 0 7.1833e-06 0 0 
0 0 0 7.13942e-06 0 7.12172e-06 0 0 6.83558e-06 
2.75595e-08 0 0 0 7.25148e-10 0 0 0 0 
0 0 0 0 0 0 0 0 0 
0 0 4.60396e-11 0 0 0 0 0 0 
0 0 0 0 0 0 0 0 0 
0 0 0 7.2003e-06 0 0 0 0 0 
0 1.38292e-08 0 0 0 0 0 0 0 
0 0 0 0 0 0 0 0 0 
0 0 0 0 0 0 0 0 0 
0 0 0 0 0 0 0 0 0 
6.95404e-06 0 0 0 0 8.21155e-06 0 0 0 
0 0 0 0 0 0 0 1.01594e-08 0 
0 0 0 0 0 0 2.37849e-10 0 0 
0 0 0 0 0 0 0 0 0 
0 0 0 0 0 0 0 0 0 
0 0 0 0 7.27926e-10 0 0 2.15393e-08 7.53086e-06 
3.14665e-06 8.61509e-06 0 0 0 0 0 0 0 
0 4.17401e-10 0 0 0 0 0 0 0 
3.26188e-08 0 0 0 0 0 0 0 0 
0 0 0 0 0 0 0 0 0 
0 0 0 0 0 0 0 0 0 
0 0 6.97164e-06 0 0 7.64562e-06 0 0 0 
6.90802e-06 0 0 0 1.86161e-08 0 0 0 0 
0 0 0 0 6.76993e-06 3.27761e-08 0 0 0 
0 0 0 0 0 0 0 0 0 
0 0 0 0 0 0 0 0 6.73522e-08 
0 0 0 0 0 0 0 0 0 
0 0 0 0 0 0 0 7.05606e-06 0 
6.70375e-06 0 0 0 6.79717e-06 0 2.90008e-10 0 0 
0 0 0 0 0 0 0 0 0 
0 0 0 0 0 0 0 0 0 
6.88054e-06 0 0 0 6.87686e-06 0 0 0 0 
0 0 0 0 0 0 0 0 0 
0 0 0 2.53472e-08 0 0 0 0 0 
0 0 5.5886e-10 0 0 0 0 0 0 
0 0 0 0 0 0 0 0 0 
0 0 0 0 0 0 0 8.1783e-06 0 
0 0 0 3.60761e-09 0 0 0 0 0 
0 0 0 0 0 0 0 0 0 
0 0 2.92522e-08 6.81543e-06 1.3773e-08 0 0 0 0 
0 0 0 0 0 0 0 0 0 
0 0 0 0 0 0 0 0 0 
0 0 0 8.05704e-06 0 0 0 0 0 
0 0 0 6.79433e-06 6.67463e-10 0 0 0 0 
0 0 0 0 0 0 0 0 0 
0 0 0 0 0 0 0 0 0 
0 0 0 0 0 0 0 0 0 
0 0 0 0 0 0 0 0 0 
0 4.61725e-10 0 0 0 0 0 9.952e-10 0 
0 0 7.71557e-10 0 0 0 0 0 0 
4.85551e-08 0 0 0 0 0 0 0 9.97925e-10 
7.23301e-06 0 0 0 0 0 0 0 0 
0 0 8.0928e-10 0 0 0 0 0 0 
0 0 0 0 0 0 0 6.783e-06 3.35003e-10 
1.15834e-08 0 1.03862e-10 0 0 0 0 0 0 
0 0 0 0 3.16651e-08 6.7802e-06 4.29898e-08 0 0 
0 0 0 0 7.18608e-06 0 1.05178e-07 6.88696e-06 0 
0 0 0 0 0 0 0 0 0 
0 0 0 0 0 0 0 0 0 
0 0 0 0 0 0 0 3.98485e-08 6.88316e-06 
4.01949e-08 0 0 0 0 0 3.66813e-08 0 0 
0 0 0 0 0 0 0 0 0 
0 0 1.63469e-08 0 0 0 0 0 0 
0 0 0 0 0 0 0 0 0 
2.63739e-10 0 0 6.77732e-06 0 0 0 0 0 
0 0 0 0 0 0 0 0 0 
0 0 6.965e-06 4.58573e-08 0 0 0 0 0 
0 1.42651e-09 0 0 0 0 0 0 0 
0 0 0 0 0 0 0 0 0 
0 0 0 0 0 0 0 0 0 
0 0 0 0 0 2.42821e-10 0 8.03142e-06 1.40231e-10 
0 0 2.57634e-10 0 8.02728e-06 8.10403e-06 0 0 0 
6.98915e-06 0 0 0 0 0 0 0 0 
0 0 0 0 0 0 0 0 0 
0 0 0 0 0 0 0 0 0 
0 0 4.29974e-10 0 0 0 1.30782e-10 0 0 
4.5566e-10 0 0 0 0 0 0 3.6075e-10 0 
0 0 0 0 3.83505e-08 0 7.2745e-10 0 0 
0 0 0 0 7.22146e-10 8.93895e-10 0 0 0 
0 0 0 0 0 0 0 0 0 
0 0 0 0 0 0 0 0 0 
0 0 1.7617e-08 0 0 0 1.45749e-10 0 0 
0 0 0 0 0 0 0 0 0 
8.44037e-06 0 8.29337e-08 7.21757e-06 0 0 0 0 0 
0 0 0 6.35673e-10 0 0 0 0 0 
0 0 0 0 0 0 0 0 0 
0 0 0 0 0 2.25478e-08 6.80331e-06 0 0 
7.00224e-06 0 0 0 0 0 0 0 0 
0 9.68889e-10 0 0 2.65382e-10 8.84673e-06 0 7.48877e-06 0 
0 0 0 0 3.90031e-10 0 0 0 1.14478e-08 
2.74084e-08 0 0 0 1.49085e-08 0 0 0 0 
0 0 5.112e-11 0 0 1.51498e-10 0 0 8.12431e-10 
0 0 0 0 0 5.48954e-08 0 0 0 
0 0 0 0 0 0 0 6.84218e-06 0 
0 0 0 0 0 0 0 0 0 
0 8.17718e-06 0 0 0 6.91112e-06 0 0 6.88234e-06 
3.88056e-10 0 0 0 3.16678e-10 3.14426e-10 0 7.46262e-10 0 
0 0 0 0 8.56009e-10 9.24459e-10 0 0 0 
2.83612e-08 6.97866e-06 0 0 0 0 0 0 0 
0 0 0 0 0 0 0 0 0 
3.55626e-08 0 0 0 7.05609e-06 0 8.42115e-06 0 7.14768e-06 
0 0 0 0 0 0 0 0 0 
0 0 0 0 0 0 0 0 0 
0 0 0 0 0 0 0 0 0 
0 0 0 0 0 4.97081e-10 0 0 0 
0 0 0 0 0 6.79305e-06 2.36642e-08 0 0 
6.27249e-08 0 4.26253e-08 0 0 0 0 3.14358e-08 6.87236e-06 
0 0 0 0 0 0 3.4424e-10 0 0 
0 0 0 0 0 0 0 0 0 
0 0 0 0 0 0 0 0 0 
0 0 0 0 5.05878e-10 0 0 0 0 
0 0 0 0 0 0 0 0 0 
0 0 0 0 0 0 0 0 0 
0 0 0 0 0 0 0 0 0 
0 0 0 0 0 0 0 0 0 
0 0 0 0 0 0 0 0 0 
0 0 0 0 0 0 1.92281e-08 0 0 
0 4.22606e-10 0 0 0 0 0 0 0 
0 0 0 0 0 0 0 0 0 
0 0 0 0 0 0 0 7.57343e-10 0 
0 0 0 0 0 0 0 0 0 
0 0 0 0 0 0 0 0 0 
0 0 0 0 0 0 0 0 0 
0 0 0 0 0 6.93502e-09 0 3.65279e-10 0 
0 0 0 0 0 0 0 0 0 
0 0 0 0 0 0 0 0 0 
0 0 0 0 0 0 0 0 0 
0 0 0 0 0 0 0 0 0 
0 0 0 0 0 0 0 0 0 
0 0 0 7.89097e-10 0 0 0 0 0 
0 0 0 0 0 0 0 0 0 
0 0 0 0 0 0 0 0 0 
0 0 0 0 0 0 0 0 0 
0 0 0 0 0 0 6.562e-10 0 9.25336e-10 
0 0 0 0 0 0 0 0 0 
0 0 0 0 0 0 0 0 0 
0 0 0 0 0 0 0 0 0 
0 7.87992e-11 0 0 0 0 0 2.40274e-10 0 
0 0 0 0 0 0 0 0 0 
0 0 0 0 0 0 0 0 0 
0 0 0 0 0 0 0 0 0 
0 0 0 0 0 0 0 0 0 
0 0 0 0 0 7.55854e-10 0 0 0 
0 0 0 0 0 0 0 0 1.59444e-10 
0 0 0 0 0 0 0 0 0 
0 0 0 0 0 0 0 0 0 
0 0 0 0 0 0 0 
feature_2 1 2500 float
0 0 0 0 0 0 0 0 0 
0 0 0 0 0 0 0 0 0 
0 0 0 0 0 0 0 0 0 
0 0 0 0 0 0 0 0 0 
0 0 0 0 0 0 0 0 0 
0 0 0 6.67944e-10 0 0 0 0 0 
0 0 0 0 0 5.43363e-10 1.14136e-10 0 0 
0 0 0 0 0 0 0 0 0 
0 0 0 0 0 0 0 0 0 
0 0 0 0 0 0 3.02677e-10 0 0 
0 0 0 0 0 0 0 0 0 
2.7112e-08 0 0 0 0 0 0 0 0 
0 0 0 0 0 0 0 0 0 
0 0 0 0 0 0 0 0 0 
0 0 0 0 0 0 0 0 0 
5.4262e-10 0 0 0 0 0 0 0 0 
0 0 0 0 0 0 0 0 0 
0 0 0 0 0 0 0 0 0 
0 0 0 0 0 0 0 0 0 
0 0 0 0 0 0 0 0 0 
0 0 0 0 0 0 0 0 0 
0 4.17618e-10 0 0 0 0 0 2.96268e-10 0 
0 0 0 0 0 0 0 0 0 
0 0 0 3.04086e-10 0 0 0 0 0 
0 0 0 0 0 0 0 0 0 
0 0 6.11568e-10 2.47306e-10 0 0 0 0 0 
0 8.8421e-10 0 0 0 0 0 0 0 
0 0 1.45636e-08 0 0 0 0 0 0 
0 0 0 0 0 0 0 0 0 
0 0 0 0 4.45425e-10 0 0 0 0 
0 0 0 0 0 0 0 0 0 
0 0 4.27317e-10 0 0 1.96989e-10 0 0 0 
0 0 0 0 0 0 0 0 0 
0 0 0 0 0 0 0 0 0 
0 0 0 0 0 0 0 0 0 
0 0 0 0 0 0 0 7.05143e-10 0 
0 0 0 0 0 0 0 0 0 
0 0 1.08951e-08 0 0 0 0 0 0 
0 0 0 0 0 0 0 0 0 
0 0 0 0 0 0 0 0 0 
0 0 0 0 0 0 0 0 0 
0 0 0 0 0 0 0 0 0 
0 0 0 0 0 0 0 0 0 
0 0 0 0 0 0 3.50251e-10 1.94831e-10 0 
0 0 0 0 0 0 1.76207e-08 0 0 
0 0 0 9.4623e-08 0 0 1.26564e-10 0 0 
0 0 0 0 0 0 0 0 0 
0 0 0 0 0 0 0 0 0 
0 0 0 0 0 0 0 0 0 
0 0 0 0 0 0 0 0 0 
0 0 0 0 0 0 0 0 0 
0 0 0 0 0 0 0 0 0 
0 0 0 0 0 0 0 0 0 
0 0 0 0 0 0 0 0 0 
0 0 0 0 0 0 0 0 0 
0 0 6.5647e-10 0 0 0 0 0 0 
0 0 0 0 0 0 0 0 0 
0 0 0 0 0 0 0 7.75131e-10 0 
0 0 0 0 0 0 0 0 0 
0 0 0 0 0 0 0 0 0 
0 0 0 0 0 0 0 0 0 
0 0 0 0 0 0 0 0 0 
5.58149e-10 0 0 0 0 0 0 0 0 
0 0 0 0 0 0 0 0 0 
0 0 0 0 0 0 0 0 0 
0 0 8.11337e-10 0 0 0 0 0 0 
0 0 0 0 0 0 0 0 0 
0 0 0 0 0 0 0 1.39933e-11 2.2558e-10 
0 0 0 0 0 0 0 0 0 
0 0 0 0 0 0 0 0 0 
0 0 0 0 0 0 0 0 0 
0 0 0 0 0 0 0 0 0 
0 0 0 0 0 0 0 0 0 
0 0 0 0 0 0 0 1.62226e-10 0 
0 2.43219e-10 0 0 0 4.39977e-10 0 0 0 
0 0 5.40091e-10 0 0 0 0 0 0 
0 0 0 0 0 0 0 0 0 
0 0 0 6.162e-10 0 0 0 0 0 
0 0 0 0 0 0 1.67196e-09 0 2.31434e-10 
0 0 0 0 0 0 0 0 0 
0 0 1.48937e-10 0 0 0 0 0 0 
0 0 0 0 0 0 0 0 3.15035e-10 
0 0 0 0 0 0 0 0 0 
0 0 0 0 0 0 0 0 0 
2.93092e-10 0 0 0 0 0 0 6.82378e-07 3.23777e-07 
0 0 0 0 0 0 0 0 0 
0 0 0 0 0 0 0 0 0 
0 0 0 0 3.77156e-11 0 0 0 0 
0 0 0 0 0 0 0 0 0 
0 0 0 0 0 0 0 0 0 
0 0 0 1.19504e-07 0 0 0 0 0 
0 3.10433e-10 0 0 0 0 0 0 0 
0 0 0 0 0 0 0 0 0 
0 0 0 0 0 0 0 0 0 
0 0 0 8.19115e-10 0 0 0 0 0 
0 0 0 5.05906e-11 0 0 0 0 0 
0 0 0 0 0 0 0 0 0 
0 0 0 0 0 0 0 0 0 
0 0 0 0 0 0 1.72761e-10 0 0 
0 0 0 0 0 0 0 0 0 
0 0 0 0 0 6.33563e-10 0 0 0 
0 0 5.24423e-10 0 0 0 5.19254e-10 0 0 
0 0 0 0 0 0 0 0 0 
0 1.15531e-09 7.52774e-10 0 4.2742e-10 0 0 0 0 
0 0 0 0 0 5.04485e-12 0 0 0 
0 0 0 0 0 0 0 0 0 
0 0 0 5.59513e-10 0 0 0 0 0 
0 0 0 0 0 0 0 0 0 
0 0 0 0 0 0 0 0 0 
0 0 0 0 0 0 0 0 0 
0 0 0 0 0 0 0 0 0 
0 0 0 0 0 0 0 0 0 
0 0 0 0 0 0 0 0 0 
0 0 0 0 0 0 0 0 0 
0 0 0 0 0 0 0 0 0 
0 0 0 0 0 0 0 0 0 
0 0 0 0 0 8.54719e-10 0 0 0 
0 0 0 0 0 0 0 0 0 
0 0 0 0 0 0 0 0 0 
0 0 0 0 0 0 0 0 0 
0 0 0 0 0 0 0 0 0 
0 0 0 0 1.47763e-10 0 0 0 0 
0 0 0 0 0 0 0 0 0 
0 0 0 0 0 0 0 0 0 
0 0 0 0 8.17789e-10 0 0 0 0 
0 0 0 0 0 0 0 0 0 
0 0 0 0 0 0 0 0 0 
0 0 0 8.98407e-10 0 0 0 0 0 
0 0 0 0 0 0 0 0 0 
0 0 0 0 0 0 0 7.70164e-10 0 
0 0 0 0 0 0 0 0 0 
0 0 0 0 0 0 0 0 0 
0 0 0 0 0 0 0 5.48113e-10 0 
0 0 0 0 1.69209e-10 0 0 0 0 
0 0 0 0 0 0 0 2.03732e-09 0 
0 0 0 0 0 0 0 0 0 
0 0 0 0 0 0 0 0 0 
0 0 0 0 0 0 0 0 2.68376e-10 
0 0 0 0 0 0 0 0 0 
0 0 0 0 0 3.4974e-10 0 0 0 
0 0 0 0 0 0 0 0 0 
0 0 0 0 6.01261e-10 0 0 0 1.78613e-10 
0 0 0 0 0 0 0 0 0 
0 0 0 0 0 0 0 0 0 
0 0 0 0 0 0 0 0 0 
0 0 0 0 0 0 0 0 0 
0 2.2267e-08 0 3.31639e-10 0 0 0 0 0 
0 0 0 0 0 0 0 0 0 
0 0 0 0 0 0 0 0 0 
0 0 0 7.2426e-10 0 0 0 0 0 
0 0 0 0 0 0 0 0 0 
0 8.83702e-11 0 0 0 0 0 1.2901e-10 0 
0 0 0 0 0 1.82239e-08 0 0 0 
0 0 0 0 0 0 0 0 0 
0 0 0 6.0087e-11 0 0 0 1.28135e-10 1.21115e-08 
0 0 0 0 0 0 0 0 0 
0 0 0 0 0 0 0 0 0 
0 0 0 0 0 0 0 0 0 
0 0 0 0 0 0 0 0 0 
0 0 0 0 0 0 0 0 0 
0 0 0 0 0 0 0 0 0 
0 0 0 0 0 0 0 0 0 
1.08068e-09 0 0 0 0 0 0 0 0 
0 0 0 0 0 0 0 0 0 
0 0 0 0 0 0 0 0 0 
0 0 0 0 0 0 0 0 0 
0 0 0 0 0 0 0 0 0 
0 0 0 0 0 0 0 0 0 
0 0 0 0 0 0 0 0 0 
0 0 0 0 0 0 0 0 3.29345e-10 
0 0 0 0 0 0 0 0 0 
0 0 0 0 0 6.94996e-10 0 0 0 
0 0 0 0 0 0 0 1.63229e-10 0 
0 0 0 0 0 0 0 0 0 
0 0 6.99043e-10 0 0 0 0 0 0 
0 0 0 0 0 0 0 0 0 
0 0 0 0 0 0 0 0 0 
0 0 0 0 0 0 0 0 0 
0 0 0 0 0 0 0 0 0 
0 0 0 0 0 0 0 4.28884e-10 4.56662e-10 
0 0 0 3.61808e-11 0 0 0 0 0 
0 0 0 0 0 0 0 0 0 
0 0 0 0 0 0 0 0 6.06676e-10 
0 0 0 6.93092e-10 0 9.04791e-10 0 0 0 
0 0 0 0 0 0 0 0 0 
0 0 5.16739e-10 0 0 0 0 0 0 
0 0 0 0 0 0 0 0 0 
0 0 0 0 0 0 0 0 0 
0 0 0 0 0 0 0 0 0 
0 0 0 0 0 0 0 0 0 
0 0 0 0 0 0 0 0 0 
4.55678e-10 0 0 0 0 0 0 0 0 
3.68358e-10 0 0 0 0 0 0 0 0 
0 0 0 0 0 0 0 0 0 
0 0 0 0 0 0 0 0 0 
0 0 0 0 0 0 0 0 0 
0 0 0 0 0 0 0 0 0 
5.17053e-10 0 0 0 0 4.40917e-10 0 0 0 
0 0 0 0 0 0 2.41837e-10 1.67766e-10 0 
0 0 0 0 0 0 0 0 0 
0 3.40068e-10 0 0 0 0 0 0 0 
0 0 0 0 0 0 0 0 0 
0 1.05131e-09 0 0 0 0 0 0 0 
0 0 0 0 0 0 0 0 0 
0 0 0 0 0 0 0 0 0 
9.51601e-10 0 0 0 0 0 0 0 0 
0 1.60796e-11 0 0 0 0 0 0 0 
0 0 0 0 0 0 0 0 0 
0 0 0 8.793e-10 0 0 0 0 0 
0 0 0 0 0 0 0 0 0 
0 0 0 0 0 0 0 0 0 
1.19942e-09 0 0 0 0 0 0 0 0 
0 0 0 0 0 0 0 0 0 
0 0 0 0 0 0 0 0 0 
1.15319e-09 0 0 0 0 0 0 0 0 
0 0 0 0 0 0 0 0 0 
0 0 0 3.3124e-08 0 0 0 0 1.30687e-08 
0 0 0 0 0 0 0 0 0 
1.25371e-09 0 0 0 0 0 1.65279e-10 0 0 
0 0 0 0 0 0 0 0 3.17328e-10 
0 0 0 0 0 0 0 0 0 
0 0 0 0 0 0 0 0 0 
0 0 0 0 0 0 0 0 0 
0 0 0 0 0 0 0 0 0 
0 0 0 0 0 0 0 0 8.26962e-10 
6.71836e-10 0 0 0 0 0 0 0 0 
0 0 0 0 0 0 0 0 0 
0 4.23867e-10 0 2.81971e-09 1.82197e-08 0 0 0 0 
0 0 0 5.70701e-10 0 0 0 0 0 
0 0 0 0 0 0 0 0 6.84857e-10 
0 0 1.13814e-08 0 0 0 0 0 0 
0 0 0 0 0 0 0 0 0 
0 0 0 0 0 0 0 0 0 
0 0 0 0 0 0 0 0 2.32291e-08 
0 0 0 0 0 0 0 0 0 
0 0 0 0 6.30003e-11 0 0 0 0 
0 0 0 0 0 0 0 0 0 
0 0 0 0 0 0 0 0 0 
0 0 0 1.79057e-11 0 0 0 0 0 
0 0 0 0 0 0 0 0 0 
0 0 0 0 0 0 0 3.25471e-10 0 
0 0 0 0 0 3.30012e-10 0 0 0 
0 0 0 0 0 0 0 0 0 
0 9.09651e-10 0 0 0 0 0 0 0 
0 0 0 0 0 0 0 0 0 
0 0 0 0 0 0 0 0 0 
0 0 0 0 0 0 0 0 0 
0 0 0 6.13451e-10 0 0 0 0 0 
0 0 0 3.17197e-09 0 0 0 4.03425e-10 0 
0 0 0 0 0 0 0 0 0 
0 0 0 0 0 0 0 1.73043e-08 0 
0 0 0 0 0 0 0 0 0 
0 0 0 0 0 0 4.98353e-10 0 0 
0 0 0 0 0 0 0 0 0 
0 0 0 0 0 0 7.49441e-10 0 0 
0 0 0 0 0 0 0 0 0 
0 0 0 6.73573e-10 0 0 0 0 0 
0 0 0 0 0 0 0 0 0 
0 0 0 0 0 0 0 3.03885e-10 0 
0 0 0 0 0 0 0 0 0 
0 4.59952e-10 0 0 0 0 0 0 0 
0 0 7.04928e-10 7.64739e-11 0 0 0 0 0 
0 0 3.76547e-10 0 2.89751e-08 0 0 0 0 
0 0 0 0 0 0 0 0 0 
0 0 0 0 0 0 0 0 0 
0 0 0 0 0 0 0 1.86995e-10 0 
0 0 0 2.18709e-09 0 0 0 0 0 
0 0 0 0 0 0 0 6.57508e-10 0 
0 0 0 0 0 0 0 0 0 
0 0 2.59648e-09 0 0 0 3.04198e-10 0 2.17021e-08 
0 0 0 0 2.61593e-10 0 0 0 0 
0 0 0 0 0 0 0 0 0 
5.17549e-10 0 0 0 0 0 0 0 0 
0 0 0 0 0 0 0 0 0 
0 0 0 0 0 0 0 0 0 
2.66329e-10 0 0 0 3.08123e-10 0 0 0 0 
0 0 0 0 0 0 0 0 0 
0 0 0 0 0 0 0 
feature_3 1 2500 float
0 0 0 0 0 0 0 0 0 
0 0 0 0 0 0 0 0 0 
0 0 0 0 0 0 0 0 0 
0 0 0 0 0 0 0 0 0 
0 0 0 0 0 0 0 0 0 
0 0 0 0 0 9.54405e-10 0 0 0 
0 0 0 0 0 0 0 0 0 
3.85921e-10 0 0 0 0 0 0 0 0 
0 0 0 0 0 0 0 0 0 
0 0 0 0 0 0 0 0 0 
0 0 0 0 0 0 0 0 0 
0 0 0 0 0 0 0 0 0 
0 0 0 0 0 0 0 5.33241e-10 0 
0 0 0 9.85011e-10 0 0 2.56698e-10 0 0 
0 0 0 0 0 0 0 0 0 
0 0 0 4.82071e-10 0 0 0 0 0 
0 0 0 0 0 0 0 0 0 
0 0 0 0 0 0 0 0 0 
0 0 0 0 9.25903e-09 0 0 0 3.41544e-10 
0 0 0 0 0 0 0 0 0 
0 0 0 0 0 0 0 0 0 
0 0 0 0 0 0 0 0 0 
0 2.95458e-10 0 0 0 0 0 0 0 
0 0 0 0 0 0 0 0 0 
0 0 0 0 0 0 0 0 0 
0 0 0 0 0 0 0 0 0 
5.15477e-10 0 0 0 0 0 0 0 2.25668e-11 
0 0 0 0 0 0 0 0 0 
0 0 0 0 0 0 0 0 0 
0 0 0 0 0 0 0 0 0 
0 0 0 0 0 0 0 0 5.30772e-10 
0 0 0 0 0 0 0 0 0 
0 0 0 0 0 0 0 0 0 
0 0 0 0 0 0 0 0 0 
0 0 0 0 0 0 0 0 0 
0 0 0 0 0 0 0 0 0 
0 0 0 0 7.59925e-11 0 0 0 0 
0 0 0 0 0 0 0 0 0 
0 0 0 0 0 0 0 0 0 
0 0 0 0 1.90742e-10 0 0 0 0 
0 0 0 0 0 0 0 0 0 
0 0 0 0 0 0 0 0 0 
0 0 0 0 0 0 0 0 0 
0 0 0 0 0 0 0 0 0 
0 0 0 2.99156e-10 0 0 0 0 0 
0 0 0 0 0 0 0 0 0 
0 0 0 0 0 0 0 0 0 
1.0456e-10 0 0 0 0 0 0 0 0 
0 0 2.79222e-10 0 0 0 0 0 0 
0 0 0 0 0 0 0 0 0 
6.23203e-10 0 0 0 0 0 0 0 0 
0 0 0 0 0 0 0 0 0 
0 0 0 0 0 0 0 0 8.66862e-13 
0 0 0 0 0 0 0 0 0 
0 0 0 0 0 0 0 0 0 
0 0 0 0 0 0 0 0 0 
0 0 0 0 0 0 0 0 0 
0 0 0 0 0 0 0 0 0 
0 0 0 0 0 0 0 0 0 
0 0 0 0 0 0 0 0 0 
0 0 0 0 1.00698e-09 0 0 2.3619e-10 0 
0 0 0 0 0 0 0 0 0 
0 0 0 0 0 0 0 0 0 
0 0 0 0 0 0 0 0 0 
0 0 0 0 0 0 0 0 0 
0 0 0 0 0 0 0 0 0 
0 0 0 0 0 0 0 0 0 
0 0 0 0 0 0 0 0 0 
0 0 0 0 0 0 0 0 0 
0 0 0 0 0 0 0 0 0 
0 0 0 0 0 0 0 0 0 
0 0 0 0 0 0 0 0 0 
0 0 0 5.48084e-10 0 0 0 0 0 
0 0 0 0 0 0 0 0 0 
2.12285e-10 0 0 0 0 0 0 0 0 
0 0 0 0 0 0 0 0 0 
0 0 0 0 0 0 6.03812e-10 0 0 
0 0 0 0 0 0 0 7.28246e-10 0 
0 0 0 0 0 0 0 0 0 
6.93259e-10 0 0 0 0 0 0 0 0 
0 0 0 0 0 4.9365e-11 0 0 0 
0 0 0 0 0 0 1.79252e-10 0 0 
0 0 0 0 2.39867e-10 0 0 0 0 
0 0 0 0 0 0 0 0 0 
0 0 0 0 0 0 0 0 0 
0 0 0 4.40306e-10 0 0 0 0 0 
0 0 0 0 0 0 0 0 0 
0 0 0 0 0 0 0 0 0 
7.36087e-10 0 0 0 0 0 0 0 0 
0 0 0 0 0 0 0 0 0 
0 0 0 0 0 0 0 0 0 
0 0 0 0 0 0 0 0 0 
0 0 0 0 0 0 0 0 0 
0 0 0 0 0 0 0 0 4.90465e-10 
0 5.68839e-10 0 0 0 0 0 0 3.07594e-10 
0 0 0 0 0 0 4.57991e-10 0 0 
0 0 0 0 0 0 0 0 0 
0 0 0 0 0 0 0 0 0 
0 0 0 0 1.02542e-07 0 0 0 0 
0 0 0 0 0 0 0 0 0 
0 0 0 0 0 0 0 0 0 
0 0 0 0 0 0 0 0 0 
0 0 4.85279e-10 0 0 0 7.06279e-11 0 0 
0 0 0 0 0 0 0 0 0 
0 0 0 0 0 0 0 0 0 
0 6.88374e-10 0 0 0 0 0 0 0 
0 0 0 0 0 0 0 0 0 
0 0 0 0 0 0 0 0 0 
0 0 0 0 0 0 0 0 0 
0 0 0 0 0 0 0 0 0 
0 0 0 0 0 0 0 0 0 
4.96332e-10 0 0 0 0 2.77574e-10 0 0 0 
0 0 0 0 0 0 0 0 0 
1.05889e-10 0 0 0 0 0 0 0 0 
0 0 0 0 0 0 0 0 0 
0 0 0 0 0 0 0 0 0 
0 0 0 0 0 0 0 0 0 
1.87725e-10 0 0 0 0 0 0 0 0 
0 0 0 0 0 0 0 0 0 
0 0 0 0 0 0 0 0 0 
0 0 0 0 0 0 0 0 0 
0 0 0 0 0 0 8.91536e-10 6.4702e-10 0 
0 0 2.97391e-08 0 0 0 0 0 0 
0 0 0 0 0 0 0 0 0 
0 0 0 0 2.44503e-09 0 0 0 0 
0 0 5.94149e-09 0 0 0 0 0 0 
0 0 0 0 0 0 0 0 0 
0 0 0 0 0 0 0 0 5.74996e-10 
0 0 0 0 0 0 0 0 0 
0 0 0 0 0 0 0 0 6.8842e-10 
0 0 0 0 0 0 0 0 0 
0 0 0 0 0 0 0 0 0 
0 0 0 0 0 0 0 0 0 
0 0 0 0 0 0 0 0 0 
0 0 0 0 0 0 0 0 0 
0 0 0 0 0 0 0 0 0 
0 0 0 0 0 0 0 0 0 
0 0 0 0 0 0 0 0 0 
0 0 0 0 0 0 0 0 3.62759e-10 
0 0 0 0 0 0 0 0 0 
0 0 0 0 0 0 0 0 0 
0 0 0 0 0 0 0 0 0 
0 0 0 0 0 0 0 0 0 
0 0 0 0 0 0 0 0 0 
0 0 0 0 1.08648e-09 1.95715e-08 0 0 2.18967e-08 
0 0 0 0 0 0 0 3.0801e-10 0 
0 1.63022e-08 0 0 0 0 0 0 0 
0 3.44766e-10 0 0 0 0 0 0 0 
0 0 0 0 0 0 0 0 0 
0 0 0 0 0 0 0 0 0 
0 0 0 0 0 0 0 0 3.17961e-10 
0 0 0 0 0 7.51626e-10 0 0 0 
0 0 0 0 0 0 0 0 0 
0 0 0 0 0 4.01803e-10 0 0 0 
0 0 0 0 0 0 0 0 0 
0 6.16659e-10 0 0 0 0 0 0 0 
0 0 0 0 0 0 0 0 0 
0 0 0 0 0 0 0 0 0 
0 0 0 0 0 0 0 0 0 
0 0 0 0 0 0 0 0 0 
0 0 0 0 0 0 0 3.07331e-10 0 
6.28173e-11 0 0 0 0 0 0 0 0 
0 0 1.76808e-10 0 0 0 2.80647e-10 0 0 
0 0 0 0 0 0 0 0 0 
0 0 0 0 0 0 0 0 0 
0 0 0 0 0 0 0 0 0 
0 0 0 0 0 0 0 0 0 
0 0 0 0 0 0 0 7.07047e-10 0 
0 0 0 0 0 0 0 0 0 
0 0 0 0 0 0 0 0 0 
0 0 0 0 0 0 0 0 0 
0 0 0 0 0 0 0 0 0 
0 0 0 0 0 0 0 0 0 
0 0 0 2.37694e-10 0 0 0 0 0 
0 0 0 0 0 0 0 0 0 
0 0 0 0 0 0 0 0 0 
0 0 0 0 0 0 0 0 0 
0 0 0 0 0 0 0 0 0 
0 0 0 0 3.41661e-10 0 0 0 0 
0 0 0 0 0 0 0 0 0 
0 0 0 0 4.55211e-10 5.27081e-10 0 0 0 
0 0 0 0 0 0 0 4.28219e-10 0 
0 0 0 0 0 5.52127e-10 0 0 0 
0 0 0 0 0 0 0 0 0 
0 0 0 0 0 0 0 0 0 
1.93507e-10 0 1.7296e-10 0 0 0 0 0 0 
0 3.13997e-10 0 0 0 0 0 0 0 
0 0 0 0 0 0 0 0 0 
0 0 0 7.71699e-10 0 0 0 0 0 
0 0 0 0 0 0 0 0 0 
0 0 0 0 0 0 0 0 0 
0 0 0 0 0 0 0 0 0 
0 0 0 0 0 0 0 0 0 
0 0 0 0 0 0 0 0 0 
0 0 0 0 0 0 0 0 0 
0 0 0 0 8.9949e-10 0 0 0 0 
0 0 0 0 0 0 0 4.34646e-10 0 
0 0 6.94225e-10 0 0 0 0 0 0 
2.83591e-08 0 0 0 0 0 0 1.85658e-10 0 
0 0 0 9.43071e-10 0 0 0 0 0 
1.52523e-08 0 0 0 0 0 0 0 0 
0 0 0 0 0 0 0 0 0 
0 0 0 2.34875e-10 0 0 0 0 4.82608e-10 
0 0 0 0 0 0 0 0 0 
0 0 0 0 0 0 0 0 0 
0 0 0 0 0 0 0 0 0 
0 0 0 0 0 1.80801e-10 0 0 0 
0 0 0 0 0 0 0 0 0 
0 0 0 3.47287e-10 0 0 0 0 0 
0 0 0 0 0 0 0 0 0 
0 0 0 0 0 0 0 0 0 
0 0 0 0 0 0 0 0 0 
0 0 0 0 0 0 0 0 0 
0 0 0 0 0 0 0 0 0 
0 0 0 0 0 0 0 0 0 
0 0 0 0 0 4.35154e-10 0 0 0 
0 0 0 0 0 0 0 0 0 
0 0 0 0 0 5.29912e-10 0 0 0 
0 0 0 0 0 5.95694e-10 0 0 0 
0 0 0 0 0 0 0 0 0 
0 0 0 0 0 0 0 0 0 
0 0 0 0 0 0 0 4.28802e-10 0 
0 0 0 4.35154e-10 0 0 0 0 0 
0 0 0 0 0 0 0 0 0 
0 0 0 0 0 0 0 0 0 
0 0 0 0 0 0 0 0 7.75707e-10 
0 0 0 0 0 0 0 0 0 
0 0 2.95771e-10 0 0 0 0 0 0 
0 0 0 0 0 0 0 0 0 
0 0 0 0 0 0 0 0 0 
0 4.04558e-10 0 0 0 3.18744e-10 0 0 0 
0 0 0 0 0 0 0 0 0 
2.97455e-10 0 0 0 0 9.33539e-10 0 0 0 
0 0 0 0 0 0 0 0 0 
0 0 0 0 0 0 0 0 0 
0 0 0 0 0 0 0 0 0 
0 0 0 0 0 0 0 0 0 
0 0 0 0 0 0 0 0 0 
0 0 0 0 0 0 0 0 0 
0 6.68845e-10 0 0 0 0 0 0 0 
0 0 0 0 0 0 0 2.17181e-10 0 
0 0 0 0 0 0 0 0 6.37076e-10 
0 0 0 0 0 0 0 0 0 
0 0 0 0 0 0 0 0 0 
0 0 0 0 0 0 0 0 0 
0 0 0 0 0 0 0 0 6.91486e-10 
0 0 0 0 0 0 0 0 0 
0 0 8.40057e-10 0 0 0 0 0 0 
0 0 0 0 0 0 0 0 0 
0 0 0 0 0 0 0 0 0 
1.3308e-08 0 0 0 0 0 0 0 0 
0 0 0 0 0 0 0 0 0 
0 0 0 0 0 0 0 0 0 
0 0 0 0 0 0 0 0 0 
0 0 0 0 0 0 0 0 0 
0 0 0 0 0 0 0 0 0 
0 0 0 0 0 0 0 0 0 
0 0 7.72072e-10 0 0 0 0 0 0 
0 0 0 0 0 0 0 0 0 
0 0 0 0 0 0 0 0 0 
0 0 0 0 0 0 0 0 0 
0 0 0 0 0 0 0 0 0 
0 0 0 0 0 0 0 0 6.89795e-11 
0 0 8.50907e-10 0 0 0 0 0 0 
0 0 0 0 0 0 0 0 0 
0 0 0 0 0 0 0 0 0 
0 0 0 0 0 0 0 0 0 
0 0 0 0 0 0 0 0 0 
0 0 0 0 0 0 0 0 0 
0 0 0 0 0 0 0 0 0 
6.37449e-10 0 0 0 0 0 0 0 0 
0 0 4.73719e-10 0 0 0 0 0 0 
0 3.35088e-10 0 0 0 0 0 0 0 
0 0 0 0 0 0 0 0 0 
0 0 0 0 0 0 0 9.90649e-10 0 
0 2.15692e-08 4.34614e-10 0 0 5.39814e-10 0 0 0 
0 0 0 0 0 0 0 0 0 
0 0 0 0 0 0 0 
feature_4 1 2500 float
0 0 0 0 0 0 0 0 0 
0 8.66507e-10 0 9.30008e-10 0 0 0 0 0 
0 0 0 3.33394e-10 0 0 8.78252e-10 0 0 
0 0 0 0 0 0 0 0 0 
0 0 0 0 0 0 0 0 0 
0 0 0 0 0 0 0 0 0 
0 0 0 0 0 0 0 0 0 
0 0 0 0 0 0 0 0 0 
0 0 0 3.33273e-10 0 0 0 0 0 
0 0 0 0 0 0 0 0 0 
0 0 0 0 0 0 0 0 0 
0 0 8.66375e-10 0 0 0 0 0 0 
0 0 0 0 0 0 0 0 0 
0 0 0 0 0 0 0 0 0 
0 2.98073e-10 0 0 0 0 0 0 1.43153e-10 
0 0 0 0 0 0 0 0 0 
0 1.77803e-10 0 0 0 7.26008e-10 5.63134e-10 0 0 
0 0 0 0 0 0 0 0 0 
0 0 0 0 0 0 0 0 0 
0 0 0 0 0 0 0 0 0 
0 0 0 0 0 0 0 0 0 
0 0 0 0 0 0 0 0 3.66985e-10 
0 0 0 0 0 0 0 0 0 
0 0 0 0 0 0 0 0 0 
0 0 0 0 0 0 0 0 0 
0 0 0 0 0 0 0 0 0 
0 0 0 0 0 0 0 0 0 
6.72891e-10 0 0 0 0 0 0 0 0 
0 0 0 0 0 0 0 0 0 
0 0 0 0 0 0 0 0 0 
0 0 0 0 0 0 0 0 0 
0 0 6.36994e-10 0 0 0 0 0 0 
0 0 0 0 0 0 0 0 0 
0 0 0 0 0 0 0 0 0 
0 0 0 0 0 0 0 0 0 
0 0 0 0 0 0 0 7.93612e-10 0 
0 0 0 0 0 0 0 0 0 
0 0 0 0 0 0 0 0 0 
0 0 5.99449e-10 0 0 0 0 0 0 
0 0 0 0 0 0 0 0 0 
0 0 0 0 0 0 0 0 0 
0 0 0 0 0 0 0 0 0 
0 0 0 0 0 0 0 0 0 
0 3.82416e-10 0 0 0 0 0 0 0 
0 0 0 0 0 0 1.99925e-10 0 0 
0 0 0 0 0 0 0 0 0 
0 0 0 0 0 0 0 0 0 
0 0 0 0 0 0 0 0 3.30878e-10 
0 0 0 0 5.23265e-10 0 0 0 0 
0 0 0 0 0 0 0 0 0 
0 0 0 0 0 0 0 0 0 
0 0 0 4.08725e-10 0 0 0 0 0 
0 0 0 0 0 0 0 0 0 
0 0 0 0 0 0 0 0 0 
0 0 0 0 0 0 0 0 0 
0 0 0 0 0 0 0 0 0 
0 0 0 0 0 1.03308e-10 0 0 0 
0 0 0 0 0 0 0 0 0 
0 7.98728e-10 0 0 0 0 0 0 0 
0 0 0 5.18623e-10 0 0 0 0 0 
0 0 0 0 0 0 0 0 0 
0 0 0 0 0 0 0 0 0 
0 0 0 0 0 0 6.46015e-10 0 0 
0 0 0 0 0 0 0 0 0 
0 0 0 0 0 0 0 0 0 
0 0 0 0 0 0 0 0 0 
0 0 5.90717e-10 0 0 0 0 0 0 
0 0 3.34165e-10 0 0 0 0 0 0 
0 0 0 0 0 0 0 0 0 
0 0 0 0 0 0 0 0 0 
0 0 3.11708e-10 0 0 0 0 0 0 
0 0 0 0 0 0 0 0 0 
0 0 0 0 0 0 0 0 0 
0 0 0 0 0 0 0 0 0 
0 0 0 0 0 0 0 0 0 
0 0 0 0 0 0 0 0 0 
0 0 0 0 0 0 0 0 0 
0 0 0 0 0 0 0 0 0 
0 0 0 0 0 0 0 0 0 
0 0 0 0 0 0 0 0 0 
1.97827e-10 0 0 0 0 0 0 0 0 
0 0 0 0 0 0 0 5.0446e-10 1.22224e-10 
0 0 0 0 0 0 0 0 0 
0 0 0 0 0 0 0 0 0 
0 0 0 0 0 0 0 0 0 
0 0 0 0 0 0 0 0 0 
0 0 0 0 0 0 0 0 0 
0 0 0 0 0 0 0 0 0 
0 0 0 0 0 0 0 0 0 
0 0 0 0 0 0 0 0 0 
0 0 1.03309e-10 7.75643e-10 0 0 0 0 0 
0 0 0 0 0 0 0 0 0 
0 0 0 0 0 0 0 0 0 
0 0 0 0 0 0 0 0 0 
0 0 0 0 0 0 0 0 0 
0 0 0 0 0 0 0 0 0 
0 0 0 0 0 0 0 0 0 
0 0 0 0 0 0 0 0 0 
2.90637e-10 0 0 0 0 0 0 0 7.63759e-10 
0 0 0 0 0 0 0 0 0 
0 0 0 0 0 0 8.81304e-10 0 0 
0 0 0 0 0 0 0 0 0 
0 5.21871e-10 0 0 0 0 0 0 0 
9.0925e-10 0 0 0 0 0 0 0 0 
0 0 0 0 0 0 0 0 0 
0 0 0 0 0 0 0 0 0 
0 0 0 0 0 0 0 0 0 
0 0 7.75277e-10 0 0 0 0 0 3.38968e-10 
0 0 0 0 0 0 0 0 0 
0 0 0 0 0 0 0 0 0 
0 0 0 0 0 0 0 0 0 
0 0 0 5.00926e-10 0 0 0 0 0 
0 0 0 0 0 0 0 0 0 
0 0 0 0 0 0 0 0 0 
0 0 0 0 0 0 0 0 0 
0 0 0 0 0 0 0 0 0 
0 0 0 0 0 0 0 0 0 
0 0 0 0 0 0 0 0 0 
0 0 0 0 0 0 0 0 0 
0 0 0 0 0 0 2.29235e-10 4.54694e-10 0 
0 0 0 0 0 0 0 0 0 
0 0 0 0 0 0 0 6.0205e-10 0 
0 0 0 0 0 0 0 0 0 
0 0 0 0 0 0 0 0 0 
0 0 0 0 0 0 0 0 0 
0 0 0 0 3.33133e-10 0 0 0 0 
0 0 0 0 0 0 0 0 0 
0 0 0 0 0 0 0 0 0 
0 0 0 0 0 0 0 0 0 
0 0 0 0 0 0 0 0 0 
0 0 0 0 0 0 0 0 0 
0 0 0 0 0 0 0 0 0 
0 0 0 3.35548e-10 0 0 0 0 0 
0 0 0 0 0 0 0 0 0 
0 0 0 0 0 0 0 0 0 
0 0 0 0 0 0 0 2.30543e-10 0 
0 0 0 0 0 0 0 0 0 
0 0 0 0 0 0 0 0 0 
0 0 0 0 0 0 0 0 0 
0 0 0 0 0 0 0 0 0 
0 1.03907e-09 0 0 0 2.24491e-10 0 0 0 
0 0 0 0 0 0 0 0 0 
0 0 0 0 0 0 0 0 0 
0 4.93852e-10 0 0 0 0 0 8.40984e-10 0 
0 0 0 0 0 0 0 0 0 
0 0 0 0 0 0 0 0 0 
0 0 0 0 0 0 0 0 0 
0 0 0 0 0 0 2.53431e-10 0 0 
0 0 0 0 0 0 0 0 0 
0 0 0 0 0 0 0 0 6.91418e-10 
0 0 0 0 0 0 0 0 0 
0 0 0 1.04196e-09 0 0 0 0 0 
0 0 0 0 0 0 0 0 0 
0 0 0 0 0 0 0 0 0 
0 0 0 0 0 0 7.9314e-10 0 0 
0 0 0 0 0 0 0 1.1466e-10 0 
0 0 0 0 0 0 0 0 0 
0 0 0 7.85942e-10 4.70873e-10 0 0 0 0 
0 0 0 0 0 0 0 0 0 
0 0 0 0 0 0 0 0 0 
0 0 0 0 0 0 0 0 0 
0 0 0 0 0 0 0 0 0 
0 2.80767e-10 0 0 0 0 0 0 0 
0 0 0 0 0 0 0 0 0 
0 0 0 0 0 0 0 0 0 
0 0 0 0 0 0 0 0 0 
0 0 0 0 0 0 0 0 0 
0 0 0 0 0 0 0 0 0 
0 0 0 0 0 0 0 0 0 
0 0 0 0 0 0 0 0 5.00826e-11 
0 0 0 0 0 0 0 0 0 
0 1.65993e-10 0 0 0 0 6.11442e-10 0 0 
0 0 0 0 0 0 0 0 0 
0 0 0 0 0 0 0 0 0 
0 0 0 0 0 0 0 7.03295e-11 0 
0 8.19202e-10 0 0 0 0 2.79829e-10 0 0 
1.5817e-10 0 0 0 0 0 0 6.45114e-10 0 
0 0 0 0 0 0 0 0 0 
0 0 0 0 0 0 0 0 0 
0 0 0 0 0 0 0 0 0 
0 2.5025e-10 0 0 0 0 1.81911e-10 0 0 
0 0 0 0 0 0 0 0 0 
0 0 0 0 0 0 0 0 0 
0 0 0 0 0 0 0 0 0 
0 0 0 0 0 0 0 0 0 
0 0 0 0 0 0 0 0 0 
5.22338e-11 0 0 0 0 0 0 0 0 
0 0 0 0 0 0 0 0 0 
0 0 0 0 0 0 0 4.22506e-10 0 
0 0 0 0 0 0 0 0 0 
0 0 0 0 0 0 0 0 0 
0 0 0 0 0 6.53031e-10 0 0 0 
0 0 0 0 0 0 0 0 0 
0 0 0 0 6.43894e-10 0 4.2111e-10 0 0 
0 0 0 0 0 0 0 0 0 
0 0 0 0 0 0 0 0 0 
0 0 0 0 0 0 0 0 0 
0 0 0 0 0 0 0 0 0 
0 0 0 0 0 0 0 0 0 
0 0 0 0 0 0 0 0 0 
0 0 0 0 0 0 0 0 0 
0 0 0 0 0 0 0 0 0 
3.35856e-10 0 0 0 0 0 0 0 0 
0 0 0 0 0 0 0 0 0 
0 0 7.81668e-11 0 0 0 0 0 0 
0 0 0 0 0 0 0 0 0 
0 0 0 0 0 0 0 0 0 
0 0 0 0 0 0 0 0 0 
0 0 0 0 0 0 0 0 0 
5.06049e-10 0 3.93621e-10 1.70985e-10 0 0 0 0 0 
0 0 0 0 0 0 0 0 0 
0 0 0 0 0 0 0 0 0 
0 0 0 4.87169e-10 0 0 0 0 0 
0 0 0 0 0 0 8.49589e-10 0 0 
0 0 0 0 0 0 0 0 0 
0 0 0 0 0 0 0 0 0 
0 0 0 0 0 0 0 0 0 
0 0 0 0 0 0 0 0 0 
0 0 0 0 0 0 0 0 0 
0 0 0 0 0 0 0 0 0 
0 0 0 0 0 0 0 0 0 
0 0 0 0 0 0 0 0 0 
0 0 0 0 0 0 0 0 0 
0 0 0 0 0 0 0 0 0 
0 0 6.82338e-10 0 0 0 0 0 0 
0 0 0 0 0 0 0 0 0 
0 0 0 0 0 0 0 0 0 
0 0 0 0 0 0 0 0 0 
4.33907e-10 0 0 0 0 0 0 8.10925e-10 0 
0 0 0 0 0 0 0 0 0 
0 0 0 0 0 0 0 0 0 
4.08097e-10 0 0 0 2.58066e-10 0 0 0 0 
0 0 0 0 0 0 0 0 0 
0 0 0 0 0 0 0 0 0 
0 0 0 0 0 0 0 0 0 
0 0 0 4.42062e-10 0 0 9.88848e-10 0 0 
0 0 0 0 0 0 0 0 0 
0 0 0 0 0 0 0 0 0 
0 0 0 0 0 0 0 0 0 
0 0 0 0 0 0 0 5.6524e-10 0 
0 0 0 1.39263e-10 0 0 0 0 0 
0 0 0 0 0 4.34888e-10 0 0 0 
0 0 0 0 0 0 0 0 0 
0 0 0 0 0 0 0 9.559e-10 0 
0 0 0 0 0 0 0 0 0 
0 0 0 0 0 0 0 0 0 
0 0 8.79403e-10 0 0 0 0 0 0 
0 0 0 0 0 0 0 0 0 
0 0 0 0 0 0 0 0 0 
0 0 3.49655e-10 0 0 0 0 0 0 
0 0 0 0 0 0 0 0 0 
0 0 0 0 0 0 4.35612e-10 0 0 
0 0 0 0 0 1.87523e-10 0 0 0 
3.89807e-10 0 0 0 0 0 0 0 0 
0 0 0 0 4.70877e-10 0 0 0 0 
0 0 0 0 0 0 0 0 0 
0 0 0 0 0 0 0 0 0 
0 0 0 0 0 0 0 0 0 
0 3.73209e-10 0 1.47299e-10 0 0 0 0 0 
0 0 0 4.56311e-10 0 0 0 0 0 
0 0 0 0 0 0 0 0 0 
0 0 0 0 0 0 0 0 0 
0 0 6.04288e-10 0 0 0 0 0 0 
0 0 0 0 0 0 0 0 0 
0 0 0 0 0 0 0 0 0 
0 0 3.16925e-10 0 0 0 0 0 0 
0 0 0 0 0 0 0 0 0 
0 0 0 0 0 0 3.87999e-10 0 0 
0 0 0 0 0 0 0 8.41489e-10 0 
0 0 0 0 0 0 0 0 0 
0 0 0 0 0 0 0 0 0 
0 0 0 0 0 0 0 0 0 
0 0 0 0 0 1.59588e-11 0 0 0 
0 6.93223e-10 0 0 0 0 0 0 0 
0 0 0 0 0 0 0 0 0 
0 0 0 0 0 2.78561e-10 0 0 0 
0 0 0 0 0 0 0 0 0 
0 0 0 0 0 0 0 
feature_5 1 2500 float
0 0 0 0 0 0 0 0 0 
0 0 0 0 0 0 0 0 0 
0 0 0 0 0 0 0 0 0 
0 0 0 0 0 0 2.94374e-10 0 0 
0 0 0 0 0 2.02206e-10 0 0 0 
0 0 0 0 0 0 0 0 0 
0 9.68196e-10 0 0 0 0 0 0 0 
0 0 0 0 0 0 0 0 0 
0 0 0 0 0 0 0 0 0 
0 0 0 0 0 0 0 1.05286e-09 0 
0 0 9.32875e-10 0 0 0 0 0 0 
3.29152e-08 0 6.55998e-10 0 0 0 0 0 0 
0 0 0 0 5.22908e-10 0 0 0 0 
0 0 0 0 0 0 0 0 0 
0 0 0 0 0 0 0 0 0 
0 0 0 0 0 0 5.90425e-10 0 0 
0 0 0 0 0 0 0 0 7.3263e-10 
0 0 0 0 0 0 1.00858e-10 0 0 
0 0 0 0 0 0 0 0 0 
0 0 0 0 0 0 0 0 0 
0 0 0 0 0 0 9.39622e-11 0 0 
0 0 0 3.04173e-08 0 0 0 0 2.50857e-08 
0 0 1.79519e-10 4.10925e-10 0 0 0 0 0 
0 0 0 0 0 0 0 0 0 
0 0 1.3914e-08 0 0 0 0 0 0 
0 0 0 0 0 0 0 0 1.09665e-09 
0 0 0 0 0 0 0 0 0 
0 0 1.51823e-08 0 0 0 0 0 0 
0 0 0 0 0 0 0 6.58929e-10 0 
0 0 0 0 0 0 0 0 0 
0 0 0 0 0 0 0 0 0 
0 0 0 0 0 0 0 0 0 
0 0 0 0 4.05311e-10 0 0 0 0 
0 0 0 0 0 0 0 0 0 
0 0 0 0 0 0 0 0 0 
0 0 0 0 0 0 0 0 0 
0 0 0 0 0 0 0 0 0 
0 0 0 0 0 0 0 1.39066e-08 0 
0 0 0 4.79762e-10 0 0 0 0 0 
0 0 0 0 0 0 0 0 0 
0 1.26949e-10 0 0 0 0 0 0 0 
3.75032e-10 0 0 0 0 0 0 0 0 
0 0 0 0 0 0 0 0 0 
0 0 0 0 5.33316e-10 0 0 0 0 
0 0 0 0 0 0 1.87141e-08 0 0 
0 0 0 1.27167e-07 0 0 0 0 4.1371e-09 
0 0 0 6.9754e-10 0 5.52717e-10 0 0 0 
0 0 0 0 0 0 0 0 5.37074e-10 
0 0 0 0 0 0 0 0 0 
0 0 0 0 0 0 0 0 0 
0 0 0 0 0 0 0 0 0 
0 5.10752e-10 0 0 4.77073e-10 0 0 0 0 
0 0 0 0 0 0 0 0 0 
0 0 0 0 0 0 0 0 0 
0 0 0 0 0 0 0 0 0 
3.49175e-10 0 0 8.04331e-10 0 0 0 0 0 
2.35099e-08 0 0 0 0 0 0 0 0 
0 0 0 0 0 0 0 1.10718e-09 0 
0 7.49143e-10 0 0 0 0 0 0 3.30868e-10 
0 5.15467e-10 0 0 0 0 0 4.29008e-10 0 
0 0 0 0 0 0 0 1.88811e-08 0 
0 0 0 0 0 5.21453e-10 0 0 0 
0 0 0 0 0 0 0 0 0 
0 0 0 0 0 0 0 0 0 
0 0 0 0 0 0 0 0 0 
0 0 0 0 0 0 0 0 0 
0 0 0 0 0 0 0 0 0 
0 0 0 0 0 0 0 0 0 
0 0 0 0 0 0 0 0 0 
0 0 0 0 0 0 0 0 0 
0 0 0 0 0 0 0 0 0 
0 0 0 0 0 0 5.11722e-10 2.06546e-10 0 
0 0 0 0 0 0 0 0 0 
0 0 0 0 0 0 0 0 0 
0 0 0 1.12231e-09 0 0 9.96405e-10 0 0 
0 5.75827e-10 0 0 0 0 6.87439e-10 0 0 
0 0 0 0 0 0 0 0 0 
0 0 0 0 0 0 0 0 0 
2.49028e-08 0 0 0 0 0 0 0 0 
0 0 0 0 0 0 0 0 0 
7.33873e-10 0 0 0 0 0 0 0 0 
0 0 7.69788e-10 0 0 0 0 0 0 
0 0 0 0 0 0 2.61572e-08 0 0 
0 0 0 0 0 0 0 0 0 
0 0 0 0 0 0 0 8.77805e-07 3.92612e-07 
0 4.30848e-10 0 0 0 0 0 0 0 
0 0 0 0 0 0 0 0 0 
0 0 0 0 0 0 0 2.08439e-10 0 
0 0 0 0 0 0 0 0 0 
0 0 0 0 0 0 0 0 0 
0 0 0 0 0 0 0 0 0 
0 0 0 0 0 0 0 0 3.80222e-10 
0 0 0 0 0 0 0 0 0 