# vtk DataFile Version 5.1
vtk output
ASCII
DATASET STRUCTURED_POINTS
DIMENSIONS 50 50 1
SPACING 1 1 1
ORIGIN 0 0 0
POINT_DATA 2500
FIELD FieldData 6
feature_1 1 2500 float
0 0 0 0 6.71768e-10 0 0 0 0 
0 0 0 0 0 0 0 0 0 
0 0 0 0 0 0 7.87249e-10 0 0 
0 0 0 0 0 0 0 0 0 
0 0 0 0 0 0 0 0 3.69074e-10 
0 0 0 0 0 0 0 0 0 
0 0 5.42723e-10 0 1.27339e-10 0 0 0 0 
0 0 0 0 0 0 2.75167e-10 0 0 
0 0 0 0 0 0 0 0 0 
0 0 0 0 0 0 0 0 0 
1.84487e-10 0 0 6.75996e-10 0 0 0 8.08921e-10 6.59469e-10 
0 8.77449e-11 0 0 0 0 0 0 0 
0 0 0 0 0 0 0 0 0 
0 0 0 0 0 0 0 0 0 
0 1.4258e-10 0 0 0 0 0 0 0 
0 0 0 0 0 0 0 0 0 
0 4.474e-10 0 0 0 0 0 0 0 
0 0 4.57703e-10 0 0 0 0 0 0 
0 0 0 0 0 0 0 0 0 
0 0 0 0 0 0 0 0 0 
0 0 0 0 0 0 0 0 0 
0 0 0 0 0 0 0 0 0 
0 0 0 0 0 0 0 0 0 
0 0 0 0 0 0 0 0 0 
0 0 0 0 0 0 0 4.40906e-10 8.04938e-11 
0 0 0 0 0 0 0 0 0 
0 0 0 0 0 0 0 0 0 
0 0 0 0 0 0 0 0 5.54092e-10 
0 0 0 0 0 0 0 0 0 
0 0 0 0 0 0 0 0 0 
0 0 0 0 0 0 0 0 0 
0 0 0 4.22268e-10 0 0 0 0 0 
0 0 0 0 0 0 0 0 0 
0 0 0 0 0 0 0 0 0 
0 8.56129e-10 0 0 0 0 0 0 0 
0 0 0 2.44101e-10 0 0 0 0 0 
0 0 0 0 0 0 0 0 0 
0 0 0 0 0 0 0 0 0 
0 0 0 0 0 0 0 0 0 
0 0 0 0 0 0 0 7.01075e-10 0 
0 0 0 4.51692e-11 0 0 0 0 2.69416e-08 
7.90678e-10 0 0 0 0 0 0 0 6.77252e-06 
5.10992e-08 0 0 0 0 0 0 0 0 
0 0 0 0 0 0 0 0 0 
0 0 0 0 0 0 0 0 0 
0 0 0 6.7805e-06 0 0 0 0 0 
0 0 0 0 6.79174e-06 0 0 0 0 
0 0 0 0 0 0 0 0 0 
0 6.34746e-10 0 0 0 0 0 0 0 
0 0 0 0 0 0 0 0 0 
0 7.68026e-11 0 0 0 0 0 0 5.69713e-11 
0 0 0 0 0 0 0 0 2.96989e-08 
0 0 0 0 0 0 0 0 0 
0 0 2.32929e-09 0 0 0 0 0 0 
0 0 0 0 0 0 0 0 0 
0 0 0 0 0 0 0 0 0 
2.00799e-11 0 0 0 0 0 0 0 0 
0 0 0 7.18678e-06 0 5.32221e-10 0 0 0 
0 0 0 0 0 0 0 0 0 
0 0 3.13564e-08 0 8.53635e-10 0 0 0 0 
6.87261e-06 0 0 0 0 5.11253e-10 0 0 0 
0 0 0 0 4.87404e-10 0 0 0 0 
0 0 7.19044e-06 0 0 7.02489e-06 0 7.35821e-06 5.8753e-10 
0 0 0 4.74522e-10 0 0 0 0 0 
0 0 0 0 0 0 8.09847e-06 8.39591e-06 0 
0 3.7697e-08 6.88842e-06 0 0 3.32878e-08 0 0 0 
0 0 0 0 0 0 0 0 0 
0 0 0 0 0 6.12654e-08 7.1686e-06 0 0 
0 0 0 0 0 0 0 0 0 
0 0 0 0 5.74794e-11 0 0 0 0 
0 1.13145e-09 0 0 7.25414e-06 0 0 3.47213e-08 0 
6.93522e-06 0 0 0 0 0 0 0 0 
0 0 0 4.18932e-10 0 0 0 0 0 
0 1.50964e-08 0 0 0 0 0 0 0 
0 0 0 0 0 0 0 0 6.80418e-06 
0 0 6.81081e-06 0 0 0 0 0 0 
0 7.28161e-10 0 0 0 0 0 0 0 
0 0 6.91195e-10 0 0 0 0 0 0 
0 0 0 0 0 4.38078e-10 0 0 0 
0 0 0 0 0 0 0 0 0 
0 8.45315e-11 0 0 2.2396e-08 0 0 5.34898e-08 0 
0 0 0 0 0 0 0 0 0 
0 0 0 0 0 0 0 0 0 
0 0 0 0 0 0 0 0 0 
0 0 0 0 0 6.91668e-06 0 2.59802e-07 7.38927e-06 
0 0 0 0 0 0 0 0 0 
0 0 0 0 0 0 0 6.87044e-06 6.57773e-08 
0 0 0 0 0 0 0 0 0 
0 0 0 0 0 0 0 0 1.08898e-09 
0 0 0 0 0 0 0 0 0 
0 4.73263e-08 0 7.64e-06 0 0 0 0 0 
6.06597e-10 1.69361e-08 6.79934e-06 3.18563e-08 0 0 0 2.46892e-10 0 
0 0 0 0 5.72323e-08 0 0 0 0 
0 0 0 0 0 0 0 0 0 
0 0 0 0 0 0 0 0 0 
0 0 0 4.40934e-10 1.7361e-10 0 0 0 0 
7.45456e-06 0 0 7.40804e-09 0 1.16892e-09 0 0 0 
0 0 2.2023e-08 0 0 0 8.01087e-09 0 0 
0 0 0 0 6.12252e-07 0 0 0 0 
6.09656e-10 0 1.17321e-10 3.11726e-10 0 0 0 6.10893e-10 0 
5.25498e-10 0 0 9.73262e-10 0 0 0 0 0 
0 0 6.83899e-06 0 0 0 3.88003e-08 0 0 
0 0 0 0 0 0 0 0 6.97824e-06 
0 0 0 0 0 8.10846e-06 0 0 7.50081e-06 
0 7.56088e-06 0 0 0 0 2.79098e-10 0 0 
0 0 0 0 0 0 0 0 0 
0 0 0 0 0 0 0 0 0 
0 0 7.07942e-06 0 7.22909e-06 7.38655e-08 8.60322e-06 9.30473e-06 0 
0 0 0 4.91497e-08 0 0 0 0 0 
0 5.59569e-08 0 0 0 7.99591e-06 0 0 0 
0 0 0 0 0 0 0 0 0 
0 0 0 6.13031e-10 0 0 0 0 0 
0 0 0 0 0 0 0 0 0 
0 0 0 8.41381e-06 4.25583e-08 6.89806e-10 0 0 0 
0 0 0 0 0 0 0 0 7.41791e-06 
0 0 7.43917e-06 0 0 0 0 0 0 
0 0 0 0 0 0 0 0 0 
0 0 0 0 0 0 0 0 0 
0 0 0 0 0 0 0 0 3.14322e-08 
0 0 0 0 0 0 0 0 0 
0 7.0901e-06 0 7.53789e-06 0 0 0 2.91621e-08 0 
0 0 0 0 0 0 0 0 0 
0 0 0 0 0 0 0 0 2.54689e-08 
8.01425e-06 8.01957e-06 0 0 0 0 0 6.78866e-06 0 
0 0 0 0 2.00378e-08 0 0 0 0 
0 0 0 0 0 0 0 0 6.97884e-08 
0 0 0 0 0 0 0 0 0 
0 0 0 0 0 0 0 0 0 
0 0 0 0 1.65245e-08 0 0 0 0 
0 0 0 4.44011e-08 0 0 3.23095e-08 6.86387e-06 0 
0 0 0 0 0 0 7.18352e-06 0 0 
0 0 0 7.1391e-06 0 7.12196e-06 0 0 6.83584e-06 
2.75118e-08 0 0 0 5.53964e-10 0 0 0 0 
0 0 0 0 0 0 0 0 0 
0 0 2.03492e-10 0 0 0 0 0 0 
0 0 0 0 0 0 0 0 0 
0 0 0 7.20028e-06 0 0 0 0 0 
0 1.36343e-08 0 0 0 0 0 0 0 
0 0 0 0 0 0 0 0 0 
0 0 0 0 0 0 0 0 0 
0 0 0 0 0 0 0 0 0 
6.95438e-06 0 0 0 0 8.21162e-06 0 0 0 
0 0 0 0 0 0 0 1.00866e-08 0 
0 0 0 0 0 0 3.13733e-10 0 0 
0 0 0 0 0 0 0 0 0 
0 0 0 0 0 0 0 0 0 
0 0 0 0 9.09541e-10 0 0 2.1541e-08 7.53105e-06 
3.14694e-06 8.61537e-06 0 0 0 0 0 0 0 
0 1.42002e-10 0 0 0 0 0 0 0 
3.25286e-08 0 0 0 0 0 0 0 0 
0 0 0 0 0 0 0 0 0 
0 0 0 0 0 0 0 0 0 
0 0 6.9714e-06 0 0 7.64605e-06 0 0 0 
6.90793e-06 0 0 0 1.84783e-08 0 0 0 0 
0 0 0 0 6.76989e-06 3.27474e-08 0 0 0 
0 0 0 8.13678e-11 0 0 0 0 0 
0 0 0 0 0 0 0 0 6.7438e-08 
0 0 0 0 0 0 0 0 0 
0 0 0 0 0 0 0 7.056e-06 0 
6.70394e-06 0 0 0 6.79694e-06 0 6.00913e-10 0 0 
0 0 0 0 0 0 0 0 0 
0 0 0 0 0 0 0 0 0 
6.88038e-06 0 0 0 6.87689e-06 0 0 0 0 
0 0 0 0 0 0 0 0 0 
0 0 0 2.51915e-08 0 0 0 0 0 
0 0 4.81542e-10 0 0 0 0 0 0 
0 0 0 0 0 0 0 0 0 
0 0 0 0 0 0 0 8.17853e-06 0 
0 0 0 3.78712e-09 0 0 0 0 0 
0 0 0 0 0 0 0 0 0 
0 0 2.93056e-08 6.81567e-06 1.36771e-08 0 0 0 0 
0 0 0 0 0 1.34545e-10 0 0 0 
0 0 0 0 0 0 0 0 0 
0 0 0 8.05681e-06 0 0 0 0 0 
0 0 0 6.7942e-06 8.59934e-10 0 0 0 0 
0 0 0 0 0 0 0 0 0 
0 0 0 0 0 0 0 0 0 
0 0 0 0 0 0 0 0 0 
0 0 0 0 0 0 0 0 0 
0 5.46077e-10 0 0 0 0 0 1.0272e-09 0 
0 0 6.02778e-10 0 0 0 0 0 0 
4.84461e-08 0 0 0 0 0 0 0 1.03791e-09 
7.23309e-06 0 0 0 0 0 0 0 0 
0 0 7.97691e-10 0 0 0 0 0 0 
0 0 0 0 0 0 0 6.78309e-06 4.28887e-10 
1.15505e-08 0 3.39188e-10 0 0 0 0 0 0 
0 0 0 0 3.20222e-08 6.78032e-06 4.30527e-08 0 0 
0 0 0 0 7.1862e-06 0 1.05332e-07 6.8869e-06 0 
0 0 0 0 0 0 0 0 0 
0 0 0 0 0 0 0 0 0 
0 0 0 0 0 0 0 3.97301e-08 6.88304e-06 
4.0304e-08 0 0 0 0 0 3.64177e-08 0 0 
0 0 0 0 0 0 0 2.37858e-10 0 
1.41629e-11 0 1.61366e-08 0 0 0 0 0 0 
0 0 0 0 0 0 0 0 0 
4.30337e-10 0 0 6.77734e-06 0 0 0 0 0 
0 0 0 0 0 0 0 0 0 
0 0 6.96495e-06 4.58234e-08 0 0 0 0 0 
0 1.31461e-09 0 0 0 0 0 0 0 
0 0 0 0 0 0 0 0 0 
0 0 0 0 0 0 0 0 0 
0 0 0 0 0 8.23874e-11 0 8.03142e-06 2.51408e-10 
0 2.70724e-10 2.61842e-10 0 8.0273e-06 8.10429e-06 0 0 0 
6.98929e-06 0 0 0 0 0 0 0 0 
0 0 0 0 0 0 0 0 0 
0 0 0 0 0 0 0 0 0 
0 0 6.36064e-10 0 0 0 2.7746e-10 0 0 
1.8829e-10 0 0 0 0 0 0 3.12085e-10 0 
0 0 0 0 3.81059e-08 0 8.24148e-10 0 0 
0 0 0 0 8.75495e-10 9.83192e-10 0 0 0 
0 0 0 0 0 0 0 0 0 
0 0 0 0 0 0 0 0 0 
0 0 1.73042e-08 0 0 0 2.03794e-10 0 0 
0 0 0 0 0 0 0 0 0 
8.44017e-06 0 8.2623e-08 7.21759e-06 0 0 0 0 0 
0 0 0 6.42093e-10 0 0 0 0 0 
0 0 0 0 0 0 0 0 0 
0 0 0 0 0 2.25605e-08 6.80333e-06 0 0 
7.00191e-06 0 0 0 0 0 0 0 0 
0 7.25194e-10 0 0 3.20065e-10 8.84639e-06 0 7.48854e-06 0 
0 0 0 0 4.66969e-10 0 0 0 1.15332e-08 
2.75197e-08 0 0 0 1.4931e-08 0 0 0 0 
0 0 0 0 0 4.96275e-10 0 0 7.47811e-10 
0 0 0 0 0 5.46515e-08 0 0 0 
0 0 0 5.79625e-11 0 0 0 6.84229e-06 0 
0 0 0 0 0 0 0 0 0 
0 8.17712e-06 0 0 0 6.91148e-06 0 0 6.88247e-06 
7.91129e-10 0 0 0 6.95692e-11 4.90644e-10 0 7.08713e-10 0 
0 0 0 0 8.78064e-10 7.97769e-10 0 0 0 
2.79816e-08 6.97875e-06 0 0 0 0 0 0 0 
0 0 0 0 0 0 0 0 0 
3.54707e-08 0 0 0 7.05611e-06 0 8.42081e-06 0 7.14789e-06 
0 0 0 0 0 0 0 0 0 
0 0 0 0 0 0 0 0 0 
0 0 0 0 0 0 0 0 0 
0 0 0 0 0 5.25834e-10 0 0 0 
0 0 0 0 0 6.79342e-06 2.33152e-08 0 0 
6.27939e-08 0 4.28116e-08 0 0 0 0 3.11418e-08 6.87203e-06 
0 0 0 0 0 0 7.80155e-10 0 0 
0 0 0 0 0 0 0 0 0 
0 0 0 0 0 0 0 0 0 
0 0 0 0 4.72728e-10 0 0 0 0 
0 0 0 0 0 0 0 0 0 
0 0 0 0 0 0 0 0 0 
0 0 0 0 0 0 0 0 0 
0 0 0 0 0 0 0 0 0 
0 0 0 0 0 0 0 0 0 
0 0 0 0 0 0 1.94911e-08 0 0 
0 2.95128e-10 0 0 0 0 0 0 0 
0 0 0 0 0 0 0 0 0 
0 0 0 0 0 0 0 6.48924e-10 0 
0 0 0 0 0 0 0 0 0 
0 0 0 0 0 0 0 0 0 
0 0 0 0 0 0 0 0 0 
0 0 0 0 0 6.89388e-09 0 5.39423e-10 0 
0 0 0 0 0 0 0 0 0 
0 0 0 0 0 0 0 0 0 
0 0 0 0 0 0 0 0 0 
0 0 0 0 0 0 0 0 0 
0 0 0 0 0 0 0 0 0 
0 0 0 6.11234e-10 0 0 0 0 0 
0 0 0 0 0 0 0 0 0 
0 0 0 0 0 0 0 0 0 
0 0 0 0 0 0 0 0 0 
0 0 0 0 0 0 6.57192e-10 0 9.00481e-10 
0 0 0 0 0 0 0 0 0 
0 0 0 0 0 0 0 0 0 
0 0 0 0 0 2.51418e-10 0 0 0 
0 1.00478e-10 0 0 0 0 0 0 0 
0 0 0 1.14653e-10 0 0 0 0 0 
0 0 0 0 0 0 0 0 0 
0 0 0 0 0 0 0 0 0 
0 0 0 0 0 0 0 0 0 
0 0 0 0 0 5.61858e-10 0 0 0 
0 0 0 0 0 0 0 0 3.51045e-10 
0 0 0 0 0 0 0 0 0 
0 0 0 0 0 0 0 0 0 
0 0 0 0 0 0 0 
feature_2 1 2500 float
0 0 0 0 0 0 0 0 0 
0 0 0 0 0 0 0 0 0 
0 0 0 0 0 0 0 0 0 
0 0 0 0 0 0 0 0 0 
0 0 0 0 0 0 0 0 0 
0 0 0 7.31012e-10 0 0 0 0 0 
0 0 0 0 0 8.52445e-10 8.62936e-11 0 0 
0 0 0 0 0 0 0 0 0 
0 0 0 0 0 0 0 0 0 
0 0 0 0 0 0 1.86557e-10 0 0 
0 0 0 0 0 0 0 0 0 
2.70012e-08 0 0 0 0 0 0 0 0 
0 0 0 0 0 0 0 0 0 
0 0 0 0 0 0 0 0 0 
0 0 0 0 0 0 0 0 0 
6.13333e-10 0 0 0 0 0 0 0 0 
0 0 0 0 0 0 0 0 0 
0 0 0 0 0 0 0 0 0 
0 0 0 0 0 0 0 0 0 
0 0 0 0 0 0 0 0 0 
0 0 1.68499e-10 0 0 0 0 0 0 
0 4.1824e-10 0 0 0 0 0 5.55968e-10 0 
0 0 0 0 0 0 0 0 0 
0 0 0 9.52594e-11 0 0 0 0 0 
0 0 0 0 0 0 0 0 0 
0 0 4.72635e-10 4.21871e-10 0 0 0 0 0 
0 8.24514e-10 0 0 0 0 0 0 0 
0 0 1.42669e-08 0 0 0 0 0 0 
0 0 0 0 0 0 0 0 0 
0 0 0 0 6.55895e-10 0 0 0 0 
0 0 0 0 0 0 0 0 0 
0 0 8.35161e-10 0 0 1.04778e-10 0 0 0 
0 0 0 0 0 0 0 0 0 
0 0 0 0 0 0 0 0 0 
0 0 0 0 0 0 0 0 0 
0 0 0 0 0 0 0 4.09713e-10 0 
0 0 0 0 0 0 0 0 0 
0 0 1.08849e-08 0 0 0 0 0 0 
0 0 0 0 0 0 0 0 0 
0 0 0 0 0 0 0 0 0 
0 0 0 0 0 0 0 0 0 
0 0 0 0 0 0 0 0 0 
0 0 0 0 0 8.0064e-11 0 0 0 
0 0 0 0 0 0 3.72552e-10 2.3784e-10 0 
0 0 0 0 0 0 1.75837e-08 0 0 
0 0 0 9.48856e-08 0 0 3.56097e-10 0 0 
0 0 0 0 0 0 0 0 0 
0 0 0 0 0 0 0 0 0 
0 0 0 0 0 0 0 0 0 
0 0 0 0 0 0 0 0 0 
0 0 0 0 0 0 0 0 0 
0 0 0 0 0 0 0 0 0 
0 0 0 0 0 0 0 0 0 
0 0 0 0 0 0 0 0 0 
0 0 0 0 0 0 0 0 0 
0 0 6.07324e-10 0 0 0 0 0 0 
0 0 0 0 0 0 0 0 0 
0 0 0 0 0 0 0 9.96096e-10 0 
0 0 0 0 0 0 0 0 0 
0 0 0 0 0 0 0 0 0 
0 0 0 0 0 0 0 0 0 
0 0 0 0 0 0 0 0 0 
7.36748e-10 0 0 0 0 0 0 0 0 
0 0 0 0 0 0 0 0 0 
0 0 0 0 0 0 0 0 0 
0 0 9.34573e-10 0 0 0 0 0 0 
0 0 0 0 0 0 0 0 0 
0 0 0 0 0 0 0 1.325e-10 1.1655e-10 
0 0 0 0 0 0 0 0 0 
0 0 0 0 0 0 0 0 0 
0 0 0 0 0 0 0 0 0 
0 0 0 0 0 0 0 0 0 
0 0 0 0 0 0 0 0 0 
0 0 0 0 0 0 0 3.68486e-10 0 
9.36335e-11 6.2904e-10 0 0 0 5.01107e-10 0 0 0 
0 0 6.91895e-10 0 0 0 0 0 0 
0 0 0 0 0 0 0 0 0 
0 0 0 8.77574e-10 0 0 0 0 0 
0 0 0 0 0 0 1.45637e-09 0 3.79689e-10 
0 0 0 0 0 0 0 0 0 
0 0 2.325e-10 0 0 0 0 0 0 
0 0 0 0 0 0 0 0 5.9444e-10 
0 0 0 0 0 0 0 0 0 
0 0 0 0 0 0 0 0 0 
3.29312e-10 0 0 0 0 0 0 6.82008e-07 3.23973e-07 
0 0 0 0 0 0 0 0 0 
0 0 0 0 0 0 0 0 0 
0 0 0 0 1.06056e-10 0 0 0 0 
0 0 0 0 0 0 0 0 0 
0 0 0 0 0 0 0 0 0 
0 0 0 1.1967e-07 0 0 0 0 0 
0 3.70548e-12 0 0 0 0 0 0 0 
0 0 0 0 0 0 0 0 0 
0 0 0 0 0 0 0 1.30491e-10 0 
0 0 0 7.39066e-10 0 0 0 0 0 
0 0 0 3.98288e-10 0 0 0 0 0 
0 0 0 0 0 0 0 0 0 
0 0 0 0 0 0 0 0 0 
0 0 0 0 0 0 3.63759e-10 0 0 
0 0 0 0 0 0 0 0 0 
0 0 0 0 0 8.33332e-10 0 0 0 
0 0 7.34065e-10 0 0 0 6.95731e-10 0 0 
0 0 0 0 0 0 0 0 0 
0 9.76986e-10 4.81325e-10 0 7.03839e-10 0 0 0 0 
0 0 0 0 0 2.86626e-10 0 0 0 
0 0 0 0 0 0 0 0 0 
0 0 0 5.50106e-10 0 0 0 0 0 
0 0 0 0 0 0 0 0 0 
0 0 0 0 0 0 0 0 0 
0 0 0 0 0 0 0 0 0 
0 0 0 0 0 0 0 0 0 
0 0 0 0 0 0 0 0 0 
0 0 0 0 0 0 0 0 0 
0 0 0 0 0 0 0 0 0 
0 0 0 0 0 0 0 0 0 
0 0 0 0 0 0 0 0 0 
0 0 0 0 0 6.87493e-10 0 0 0 
0 0 0 0 0 0 0 0 0 
0 0 0 0 0 0 0 0 0 
0 0 0 0 0 0 0 0 0 
0 0 0 0 0 0 0 0 0 
0 0 0 0 3.18693e-10 0 0 0 0 
0 0 0 0 0 0 0 0 0 
0 0 0 0 0 0 0 0 0 
0 0 0 0 6.64476e-10 0 0 0 0 
0 0 0 0 0 0 0 0 0 
0 0 0 0 0 0 0 0 0 
0 0 0 9.15236e-10 0 0 0 0 0 
0 0 0 0 0 0 0 0 0 
0 0 0 0 0 0 0 8.70894e-10 0 
0 0 0 0 0 0 0 0 0 
0 0 0 0 0 0 0 0 0 
0 0 0 0 0 0 0 7.81455e-10 0 
0 0 0 0 2.55262e-10 0 0 0 0 
0 0 0 0 0 0 0 1.94957e-09 0 
0 0 0 0 0 0 0 0 0 
0 0 0 0 0 0 0 0 0 
0 0 0 0 0 0 0 0 6.1803e-10 
0 0 0 0 0 0 0 0 0 
0 0 0 0 0 2.38847e-10 0 0 0 
0 0 0 0 0 0 0 0 0 
0 0 0 0 6.05866e-10 0 0 0 2.40689e-10 
0 0 0 0 0 0 0 0 0 
0 0 0 0 0 0 0 0 0 
0 0 0 0 0 0 0 0 0 
0 0 0 0 0 0 0 0 0 
0 2.23871e-08 0 7.03672e-10 0 0 2.08232e-10 0 0 
0 0 0 0 0 0 0 0 0 
0 0 0 0 0 0 0 0 0 
0 0 0 8.12658e-10 0 0 0 0 0 
0 0 0 0 0 0 0 0 0 
0 0 0 0 0 0 0 1.13634e-10 0 
0 0 0 0 0 1.80371e-08 0 0 0 
0 0 0 0 0 0 0 0 0 
0 0 0 5.42357e-10 0 0 0 1.46623e-10 1.21204e-08 
0 0 0 0 0 0 0 0 0 
0 0 0 0 0 0 0 0 0 
0 0 0 0 0 0 0 0 0 
0 0 0 0 0 0 0 0 0 
0 0 0 0 0 0 0 0 0 
0 0 0 0 0 0 0 0 0 
0 0 0 0 0 0 0 0 0 
8.81425e-10 0 0 0 0 0 0 0 0 
0 0 0 0 0 0 0 0 0 
0 0 0 0 0 0 0 0 0 
0 4.54254e-10 0 0 0 0 0 0 0 
0 0 0 0 0 0 0 0 0 
0 0 0 0 0 0 0 0 0 
0 0 0 0 0 0 0 0 0 
0 0 0 0 0 0 0 0 3.59211e-10 
0 0 0 0 0 0 0 0 0 
0 0 0 0 0 9.1449e-10 0 0 0 
0 0 0 0 0 0 0 4.54708e-10 0 
0 0 0 0 0 0 0 0 0 
0 0 6.46342e-10 0 0 0 0 0 0 
0 0 0 0 0 0 0 0 0 
0 0 0 0 0 0 0 0 0 
0 0 0 0 0 0 0 0 0 
0 0 0 0 0 0 0 0 0 
0 0 0 0 0 0 0 6.10239e-10 2.81869e-10 
0 0 0 2.27487e-10 0 0 0 0 0 
0 0 0 0 0 0 0 0 0 
0 0 0 0 0 0 0 0 7.0769e-10 
0 0 9.42517e-11 7.2718e-10 0 1.00852e-09 0 0 0 
0 0 0 0 0 0 0 0 0 
0 0 5.0127e-10 0 0 0 0 0 0 
0 0 0 0 0 0 0 0 0 
0 0 0 0 0 0 0 0 0 
0 0 0 0 0 0 0 0 0 
0 0 0 0 0 0 0 0 0 
0 0 0 0 0 0 0 0 0 
4.70013e-10 0 0 0 0 0 0 0 0 
5.85826e-10 0 0 0 1.3241e-11 0 0 0 0 
0 0 0 0 0 0 0 0 0 
0 0 0 0 0 0 0 0 0 
0 0 0 0 0 0 0 0 0 
0 0 0 0 0 0 0 0 0 
3.66725e-10 0 0 0 0 7.72815e-10 0 0 0 
0 0 0 0 0 0 6.09578e-10 5.06404e-10 0 
0 0 0 0 0 0 0 0 0 
0 5.30273e-10 0 0 0 0 0 0 0 
0 0 0 0 0 0 0 0 0 
0 9.55325e-10 0 0 0 0 0 0 0 
0 0 0 0 0 0 0 0 0 
0 0 0 0 0 0 0 0 0 
7.0817e-10 0 0 0 0 0 0 0 0 
0 3.51008e-10 0 0 0 0 0 0 0 
0 0 0 0 0 0 0 0 0 
0 0 0 7.72999e-10 0 0 0 0 0 
0 0 0 0 0 0 0 0 0 
0 0 0 0 0 0 0 0 0 
1.2442e-09 0 0 0 0 0 0 0 0 
0 0 0 0 0 0 0 0 0 
0 0 0 0 0 0 0 0 0 
9.91534e-10 6.03109e-11 0 0 0 0 0 0 0 
0 0 0 0 0 0 0 0 0 
0 0 0 3.3266e-08 0 0 0 0 1.32033e-08 
0 0 0 0 0 0 0 0 0 
1.38846e-09 0 0 0 0 0 5.76179e-11 0 0 
0 0 0 0 0 0 0 0 6.10491e-10 
0 0 0 0 0 0 0 0 0 
0 0 0 0 0 0 0 0 0 
0 0 0 0 0 0 0 0 0 
0 0 0 0 0 0 0 0 0 
0 0 0 0 0 0 0 0 8.61537e-10 
8.05855e-10 0 0 0 0 0 0 0 0 
0 0 0 0 0 0 0 0 0 
0 7.18444e-10 0 2.56772e-09 1.82922e-08 0 0 0 0 
0 0 0 6.36412e-10 0 0 0 0 0 
0 0 0 0 0 0 0 0 6.10505e-10 
0 0 1.13598e-08 0 0 0 0 0 0 
0 0 0 0 0 0 0 0 0 
0 0 0 0 0 1.30175e-10 0 0 0 
0 0 0 0 0 0 0 0 2.34632e-08 
0 0 0 0 0 0 0 0 0 
0 0 0 0 2.39357e-10 0 0 0 0 
0 0 0 0 0 0 0 0 0 
0 0 0 0 0 0 0 0 0 
0 0 0 3.06571e-10 0 0 0 3.86482e-10 0 
0 0 0 0 0 0 0 0 0 
0 0 0 0 0 0 0 6.65494e-11 0 
0 0 0 0 0 4.18883e-10 0 0 0 
0 0 0 0 0 0 0 0 0 
0 1.12955e-09 0 0 0 0 0 0 0 
0 0 0 0 0 0 0 0 0 
0 0 0 0 0 0 0 0 0 
0 0 0 0 0 0 0 0 0 
0 0 0 4.20851e-10 0 0 0 0 0 
0 0 0 3.29575e-09 0 0 0 2.09278e-10 0 
0 0 0 0 0 0 0 0 0 
0 0 0 0 0 0 0 1.70242e-08 0 
0 0 0 0 0 0 0 0 0 
0 0 0 0 0 0 2.25347e-10 0 0 
0 0 0 0 0 0 0 0 0 
0 0 0 0 0 0 4.81975e-10 0 0 
0 0 0 0 0 0 0 0 0 
0 0 0 5.69724e-10 0 0 0 0 0 
0 0 0 0 0 0 0 0 0 
0 0 0 0 0 0 0 5.78728e-10 0 
0 0 0 0 0 0 0 0 0 
0 5.10713e-10 0 0 0 0 0 0 0 
0 0 5.51662e-10 3.64905e-10 0 0 0 0 0 
0 0 2.96637e-10 0 2.88056e-08 0 0 0 0 
0 0 0 0 0 0 0 0 0 
0 0 0 0 0 0 0 0 0 
0 0 0 0 0 0 0 2.97842e-10 0 
0 0 0 2.17576e-09 0 0 0 0 0 
0 0 0 0 0 0 0 4.44892e-10 0 
0 0 2.36429e-11 0 0 0 0 0 0 
0 0 2.42383e-09 0 0 0 1.52369e-10 0 2.14663e-08 
0 0 0 0 1.85743e-10 0 0 0 0 
0 0 0 0 0 0 0 0 0 
3.69628e-10 0 0 0 0 0 0 0 0 
0 0 0 0 0 0 0 0 0 
0 0 0 0 0 0 0 0 0 
2.84533e-10 0 0 0 5.09683e-10 0 0 0 0 
0 2.49903e-10 0 0 0 0 0 0 0 
0 0 0 0 0 0 0 
feature_3 1 2500 float
0 0 0 0 0 0 0 0 0 
0 0 0 0 0 5.27756e-12 0 0 0 
0 0 0 0 0 0 0 0 6.56613e-11 
0 0 0 0 0 0 0 0 0 
0 0 0 0 0 0 0 0 0 
0 0 0 0 0 7.97112e-10 0 0 0 
0 0 0 0 0 0 0 0 0 
7.23904e-10 0 0 0 0 0 0 0 0 
0 0 0 0 0 0 0 0 0 
0 0 0 0 0 0 0 0 0 
0 0 0 0 0 0 0 0 0 
0 0 0 0 0 0 0 0 0 
0 0 0 0 0 0 0 7.159e-10 0 
0 0 0 8.15746e-10 0 0 7.19076e-10 0 0 
0 0 0 0 0 0 0 0 0 
0 0 0 7.65496e-10 0 0 0 0 0 
0 0 0 0 0 0 0 0 0 
0 0 0 0 0 0 0 0 0 
0 0 0 0 9.14339e-09 0 0 0 1.77492e-10 
0 0 0 0 0 0 0 0 0 
0 0 0 0 0 0 0 0 0 
0 0 0 0 0 0 0 0 0 
0 4.64782e-10 0 0 0 0 0 0 0 
0 0 0 0 0 0 0 0 0 
0 0 0 0 0 0 0 0 0 
0 0 0 0 0 0 0 0 0 
2.61959e-10 0 0 0 0 0 2.6513e-11 0 4.12967e-11 
2.98645e-10 0 0 0 0 0 2.78462e-11 0 0 
0 0 0 0 0 0 0 0 0 
0 0 0 0 0 0 0 0 0 
0 0 0 0 0 0 0 0 8.13454e-10 
0 0 0 0 0 0 0 0 0 
0 0 0 0 0 0 0 0 0 
0 0 0 0 0 0 0 0 0 
0 0 0 0 0 0 0 0 0 
0 0 0 0 0 0 0 0 0 
0 0 0 0 3.20576e-10 0 0 0 0 
0 0 0 0 0 0 0 0 0 
0 0 0 0 0 0 0 0 0 
0 0 0 0 3.99076e-10 0 0 0 0 
0 0 0 0 0 0 0 0 0 
0 0 0 0 0 0 0 0 0 
0 0 0 0 0 0 0 0 0 
0 0 0 0 0 0 0 0 0 
0 0 0 7.70093e-10 0 0 0 0 3.23507e-10 
0 0 0 0 0 0 0 0 0 
0 0 0 0 0 0 0 0 0 
2.16886e-10 0 0 0 0 0 0 0 0 
0 0 2.01819e-10 0 0 0 0 0 0 
0 0 0 0 0 0 0 0 0 
4.8858e-10 0 0 0 0 0 0 0 0 
0 0 0 0 0 0 0 0 0 
0 0 0 0 0 0 0 0 8.69598e-11 
0 0 0 0 0 0 0 0 0 
0 0 0 0 0 0 0 0 0 
0 0 0 0 0 0 0 0 0 
0 0 0 0 0 0 0 0 0 
0 0 0 0 0 0 0 0 0 
0 0 0 0 0 0 0 0 0 
0 0 0 0 0 0 0 0 0 
0 0 0 0 1.10118e-09 0 0 4.75977e-10 0 
0 0 0 0 0 0 0 0 0 
0 0 0 0 0 0 0 0 0 
0 0 0 0 0 0 0 0 0 
0 0 0 0 0 0 0 0 0 
0 0 0 0 0 0 0 0 0 
0 0 0 0 0 0 0 0 0 
0 0 0 0 0 0 0 0 0 
0 0 0 0 0 0 8.79545e-11 0 0 
0 0 0 0 0 0 0 0 0 
0 0 0 0 0 0 0 0 0 
0 0 0 0 0 0 0 0 0 
0 0 0 6.58378e-10 0 0 0 0 0 
0 0 0 0 0 0 0 0 0 
4.70671e-10 0 0 0 0 0 0 0 0 
0 0 0 0 0 0 0 0 0 
0 0 0 0 0 0 7.64306e-10 0 0 
0 0 0 0 0 0 0 9.2831e-10 0 
0 0 0 0 0 0 0 0 0 
9.34232e-10 0 0 0 0 0 0 0 0 
0 0 0 0 0 2.87052e-10 0 0 0 
0 0 0 0 0 0 1.65834e-10 0 0 
0 0 0 0 2.51907e-10 0 0 0 0 
0 0 0 0 0 0 0 0 0 
0 0 0 0 0 0 0 0 0 
0 0 0 8.75389e-10 0 0 0 0 0 
0 0 0 0 0 0 0 0 0 
0 0 0 0 0 0 0 0 0 
6.33246e-10 0 0 0 0 0 0 0 0 
0 0 0 0 0 0 0 0 0 
0 0 0 0 0 0 0 0 0 
0 0 0 0 0 0 0 0 0 
0 0 0 0 0 0 0 0 0 
0 0 0 0 0 0 0 0 3.78364e-10 
0 7.0769e-10 0 0 0 0 0 0 3.53072e-10 
0 0 0 0 0 0 1.37106e-10 0 0 
0 0 0 0 0 0 0 0 0 
0 0 0 0 0 0 0 0 0 
0 0 0 0 1.02226e-07 0 0 0 0 
0 0 0 0 0 0 0 0 0 
0 0 0 0 0 0 0 0 0 
0 0 0 0 0 0 0 0 0 
0 0 5.16426e-10 0 0 0 2.68908e-10 0 0 
0 0 0 0 0 0 0 0 0 
0 0 0 0 0 0 0 0 0 
0 7.01924e-10 0 0 0 0 0 0 0 
2.73825e-10 0 0 0 0 0 0 0 0 
0 0 0 0 0 0 0 0 0 
0 0 0 0 0 1.24885e-10 0 0 0 
0 0 0 0 0 0 0 0 0 
0 0 0 0 0 0 0 0 0 
6.32646e-10 0 0 0 0 4.63313e-10 0 0 0 
0 0 0 0 0 0 0 0 0 
2.35243e-11 0 0 0 0 0 0 0 0 
0 0 0 0 0 0 0 0 0 
0 0 0 0 0 0 0 0 0 
0 0 0 0 0 0 0 0 0 
5.49985e-10 0 0 0 0 0 0 0 0 
0 0 0 0 0 0 0 0 0 
0 0 0 0 0 0 0 0 0 
0 0 0 0 0 0 0 0 0 
0 0 0 0 0 0 8.29996e-10 7.40464e-10 0 
0 0 2.9702e-08 0 0 0 0 0 0 
0 0 0 0 0 0 6.61586e-11 0 0 
0 0 0 0 2.34199e-09 0 0 0 0 
0 0 5.81033e-09 0 0 0 0 0 0 
0 0 0 0 0 0 0 0 0 
0 0 0 0 0 0 0 0 8.06736e-10 
0 3.74449e-10 0 0 0 0 0 0 0 
0 0 0 0 0 0 0 0 6.65901e-10 
0 0 0 0 0 0 0 0 0 
0 0 0 0 0 0 0 0 0 
0 0 0 0 0 0 0 0 0 
0 0 0 0 0 0 0 0 0 
0 0 0 0 0 0 0 0 0 
0 0 0 0 0 0 0 0 0 
0 0 0 0 0 0 0 0 0 
0 0 0 0 0 0 0 0 0 
0 0 0 0 0 0 0 0 5.12786e-10 
0 0 0 0 0 0 0 0 0 
0 0 0 0 0 0 0 0 0 
0 0 0 0 0 0 0 0 0 
1.08038e-11 0 0 0 0 0 0 0 0 
0 0 0 0 0 0 0 0 0 
0 0 0 0 9.18448e-10 1.96487e-08 0 0 2.22179e-08 
0 0 0 0 0 0 0 2.79389e-10 0 
0 1.61991e-08 0 0 0 0 0 0 0 
0 6.12765e-10 0 0 0 0 0 0 0 
0 0 0 0 0 0 0 0 0 
0 0 0 0 0 0 0 0 0 
0 0 0 0 0 0 0 0 3.39554e-10 
0 0 0 0 0 4.34849e-10 0 0 0 
0 0 0 0 0 0 0 0 0 
0 0 0 0 0 2.50544e-10 0 0 0 
0 0 0 0 0 0 0 0 0 
0 6.5787e-10 0 0 0 0 0 0 0 
0 0 0 0 0 0 0 0 0 
0 0 0 0 0 0 0 0 3.01075e-11 
0 0 0 0 0 0 0 0 0 
0 0 0 0 0 0 0 0 0 
0 0 0 0 0 0 0 2.34646e-10 0 
0 0 0 0 0 0 0 0 0 
0 0 4.48773e-10 0 0 0 1.44825e-10 0 0 
0 0 0 0 0 0 0 0 0 
0 0 0 0 0 0 0 0 0 
0 0 0 0 0 0 0 0 0 
0 0 0 0 0 0 0 0 0 
0 0 0 0 0 0 0 6.96932e-10 0 
0 0 0 0 0 0 0 0 0 
0 0 0 0 0 0 0 0 0 
0 0 0 0 0 0 0 0 0 
0 0 0 0 0 0 0 0 0 
0 3.78901e-11 0 0 0 0 0 0 0 
0 0 0 5.26242e-10 0 0 0 0 0 
0 0 0 0 0 0 0 0 0 
0 0 0 0 0 0 0 0 0 
0 0 0 0 0 0 0 0 0 
0 0 0 0 0 0 0 0 0 
0 0 0 0 1.95655e-10 0 0 0 0 
0 0 0 0 0 0 0 0 0 
0 0 0 0 4.09824e-10 6.62716e-10 0 0 0 
0 4.08917e-12 0 0 0 0 0 2.47336e-10 0 
0 0 0 0 0 3.61876e-10 0 0 0 
0 0 0 0 0 0 0 0 0 
0 0 0 0 0 0 0 0 0 
4.43187e-10 0 5.0127e-10 0 0 0 0 0 0 
0 3.6479e-10 0 0 0 0 0 0 0 
0 0 0 0 0 0 0 0 0 
0 0 0 5.46631e-10 0 0 0 0 0 
0 0 0 0 0 0 0 0 0 
0 0 0 0 0 0 0 1.87482e-10 0 
0 0 0 0 0 0 0 0 0 
0 0 0 1.68768e-10 0 0 0 0 0 
0 0 0 0 0 0 0 0 0 
0 0 0 0 0 0 0 0 0 
0 0 0 0 1.08536e-09 0 0 0 0 
0 0 0 0 0 0 0 7.17534e-10 0 
0 0 6.7628e-10 0 0 0 0 0 0 
2.82563e-08 0 0 0 0 0 0 0 0 
0 0 0 7.08081e-10 0 0 0 0 0 
1.52089e-08 0 0 0 0 0 0 0 0 
0 0 0 0 0 0 0 0 0 
0 0 0 1.65869e-10 0 0 0 0 6.33896e-10 
0 0 0 0 0 0 0 0 0 
0 0 0 0 0 0 0 0 0 
0 0 0 0 0 0 0 0 0 
0 0 0 0 0 1.7776e-10 0 0 0 
0 0 0 0 0 0 0 0 0 
0 0 0 1.39403e-10 0 0 0 0 0 
0 0 0 0 0 0 0 0 0 
0 0 0 0 0 0 0 0 0 
0 0 0 0 0 0 0 0 0 
0 0 0 0 0 0 0 0 0 
0 0 0 0 0 0 0 0 0 
0 0 0 0 0 0 0 0 0 
0 0 0 0 0 6.9868e-10 0 0 0 
0 0 0 0 0 0 0 0 0 
0 0 0 0 0 4.43908e-10 0 0 0 
0 0 0 0 0 3.59041e-10 0 0 0 
0 0 0 0 0 0 0 0 0 
0 0 0 0 0 0 0 0 0 
0 0 0 0 0 0 0 6.94094e-10 0 
0 0 0 5.0202e-10 0 0 0 0 0 
0 0 0 0 0 0 0 0 0 
0 0 0 0 0 0 0 0 0 
0 0 0 0 0 0 0 0 1.00198e-09 
0 0 0 0 0 0 0 0 0 
0 0 6.71143e-11 0 0 0 0 0 0 
0 0 0 0 0 0 0 0 0 
2.87574e-11 0 0 0 0 0 0 0 0 
0 4.11536e-10 0 0 0 4.36864e-10 0 0 0 
0 0 0 0 0 0 0 0 0 
3.45707e-10 0 0 0 0 6.64691e-10 0 0 0 
0 0 0 0 0 0 0 0 0 
0 0 0 0 0 0 0 0 0 
0 0 0 0 0 0 0 0 0 
0 0 0 0 0 0 0 0 0 
0 0 0 0 0 0 0 0 0 
0 0 0 0 0 0 0 0 0 
0 8.4896e-10 0 0 0 0 0 0 0 
0 0 0 0 0 0 0 5.01942e-10 0 
0 3.43228e-11 0 0 0 0 0 0 5.61286e-10 
0 0 0 0 0 0 0 0 0 
0 0 0 0 0 0 0 0 0 
0 0 0 0 0 0 0 0 0 
0 0 0 0 0 0 0 0 6.03844e-10 
0 0 0 0 0 0 0 0 0 
0 0 6.94961e-10 0 0 0 0 0 0 
0 0 0 0 0 0 0 0 0 
0 0 0 0 0 0 0 0 0 
1.34604e-08 0 0 0 0 0 0 0 0 
0 0 0 0 0 0 0 0 0 
0 0 0 0 0 0 0 0 0 
0 0 0 0 0 0 0 0 0 
0 0 0 0 0 0 0 0 0 
0 0 0 0 0 0 0 0 0 
0 0 0 0 0 0 0 0 0 
0 0 9.25553e-10 0 0 0 0 0 0 
0 0 0 0 0 0 0 0 0 
0 0 0 0 0 0 0 0 0 
0 0 0 0 0 0 0 0 0 
0 0 0 0 0 0 0 0 0 
0 0 0 0 0 0 0 0 2.36788e-10 
0 0 7.82538e-10 0 0 0 0 0 0 
0 0 0 0 0 0 0 0 0 
0 0 0 0 0 0 0 0 0 
0 0 0 0 0 0 0 0 0 
0 0 0 0 0 0 0 0 0 
0 0 0 0 0 0 0 0 0 
0 0 0 0 0 0 0 0 0 
5.1109e-10 0 0 0 0 0 0 0 0 
0 0 4.28518e-10 0 0 0 0 0 0 
0 5.48194e-10 0 0 0 0 0 0 0 
0 0 0 0 0 0 0 0 0 
0 0 0 0 0 0 0 7.77352e-10 0 
0 2.14662e-08 5.40698e-10 0 0 4.19714e-10 0 0 0 
0 0 0 0 0 0 0 0 0 
0 0 0 0 0 0 0 
feature_4 1 2500 float
0 0 0 0 0 0 0 0 0 
0 7.33621e-10 0 7.88333e-10 0 0 0 0 0 
0 0 0 4.88335e-10 0 0 7.98643e-10 0 0 
0 0 0 0 0 0 0 0 0 
0 0 0 0 0 0 0 0 0 
0 0 0 0 0 0 1.65063e-10 0 0 
0 0 0 0 0 0 0 0 0 
0 0 0 0 0 0 0 0 0 
0 0 0 1.61443e-10 0 0 0 0 0 
0 0 0 0 0 0 0 0 0 
0 0 0 0 0 0 0 0 0 
0 0 8.58041e-10 0 0 0 0 0 0 
0 0 0 0 0 0 0 0 0 
0 0 0 0 0 0 0 0 0 
0 2.77588e-10 0 0 0 0 0 0 4.5862e-10 
0 0 0 0 0 0 0 0 0 
0 4.48885e-10 0 0 0 6.36483e-10 5.6734e-10 0 0 
0 0 0 0 0 0 0 0 0 
0 0 0 0 0 0 0 0 0 
0 0 0 0 0 0 0 0 0 
0 0 0 0 0 1.6688e-10 0 0 0 
0 0 0 0 0 0 0 0 3.31685e-10 
0 0 0 0 0 0 0 0 0 
0 0 0 0 0 0 0 0 0 
0 0 0 0 0 0 0 0 0 
0 0 0 0 0 0 0 0 0 
0 0 0 0 0 0 0 0 0 
3.9482e-10 0 0 0 0 0 0 0 0 
0 0 0 0 0 0 0 0 0 
0 0 0 0 0 0 0 0 0 
0 0 0 0 0 0 0 0 0 
0 0 5.48511e-10 0 0 3.33245e-12 0 0 0 
0 0 0 0 0 0 0 0 0 
0 0 0 0 0 0 0 0 0 
0 0 0 0 0 0 0 0 0 
0 0 0 0 0 0 0 6.05837e-10 0 
0 0 0 0 0 0 0 0 0 
0 0 0 0 0 0 0 0 0 
0 0 6.30099e-10 0 0 0 0 0 0 
0 0 0 0 0 0 0 0 0 
0 0 0 0 0 0 0 0 0 
0 0 0 0 0 0 0 0 0 
0 0 0 0 0 0 0 0 0 
0 2.86299e-10 0 0 0 0 0 0 0 
0 0 0 0 0 0 3.78257e-10 0 0 
0 0 0 0 0 0 0 0 0 
0 0 0 0 0 0 0 0 0 
0 0 0 0 0 0 0 0 4.88598e-10 
0 0 0 0 8.25786e-10 0 0 0 0 
0 0 0 0 0 0 0 0 0 
0 0 0 0 0 0 0 0 0 
0 0 0 3.88894e-10 0 0 0 0 0 
0 0 0 0 0 0 0 0 0 
0 0 0 3.05043e-10 0 0 0 0 0 
0 0 0 0 0 0 0 0 0 
0 0 0 0 0 0 0 0 0 
0 0 0 0 0 1.78925e-10 0 0 0 
0 0 0 0 0 0 0 0 0 
0 6.23e-10 0 0 0 0 0 0 0 
0 0 0 4.6518e-10 0 0 0 0 0 
0 0 0 0 0 0 0 0 0 
0 0 0 0 0 0 0 0 0 
0 0 0 0 0 0 5.54792e-10 0 0 
0 0 0 0 0 0 0 0 0 
0 0 0 0 0 0 0 0 0 
0 0 0 0 0 0 0 0 0 
0 0 2.9565e-10 0 0 0 0 0 0 
0 0 3.62213e-10 0 0 0 0 0 0 
0 0 0 0 0 0 0 0 0 
0 0 0 0 0 0 0 0 0 
0 0 4.4891e-10 0 0 0 0 0 0 
0 0 0 0 0 0 0 0 0 
0 0 0 0 0 0 0 0 0 
0 0 0 0 0 0 0 0 0 
0 0 0 0 0 0 0 0 0 
0 0 0 0 0 0 0 0 0 
0 0 0 0 0 0 0 0 0 
0 0 0 0 0 0 0 0 0 
0 0 0 0 0 0 0 0 0 
0 0 0 0 0 0 0 0 0 
6.15143e-11 0 0 0 0 0 0 0 0 
0 0 0 0 0 0 0 5.04876e-10 3.54408e-10 
0 0 0 0 0 0 0 0 0 
0 0 0 0 0 0 0 0 0 
0 0 0 0 0 0 0 0 0 
0 0 0 0 0 0 0 0 0 
0 0 0 0 0 0 0 0 0 
0 0 0 0 0 0 0 0 0 
0 0 0 0 0 0 0 0 0 
0 0 0 0 0 0 0 0 0 
0 0 0 6.57991e-10 0 0 0 0 0 
0 0 0 0 0 0 0 0 0 
0 0 0 0 0 0 0 0 0 
0 0 0 0 0 0 0 0 0 
0 0 0 0 0 0 0 0 0 
0 0 0 0 0 0 0 0 0 
0 0 0 0 0 0 0 0 0 
0 0 0 0 0 0 0 0 0 
1.14287e-10 0 0 0 0 0 0 0 7.75884e-10 
0 0 0 0 0 0 0 0 0 
0 0 0 0 0 0 8.19711e-10 0 0 
0 0 0 0 0 0 0 0 0 
0 3.70047e-10 0 0 0 0 0 0 0 
9.26772e-10 0 0 0 0 0 0 0 0 
0 0 0 0 0 0 0 0 0 
0 0 0 0 0 0 0 0 0 
0 0 0 0 0 0 0 0 0 
0 0 6.02057e-10 0 0 0 0 0 7.19208e-10 
0 0 0 0 0 0 0 0 0 
0 0 1.0052e-10 0 0 0 0 0 0 
0 0 0 0 0 0 0 0 0 
0 0 0 6.47532e-10 0 0 0 0 0 
0 0 0 0 0 0 0 0 0 
0 0 0 0 0 0 0 0 0 
0 0 0 0 0 0 0 0 0 
0 0 0 0 0 0 0 0 0 
0 0 0 0 0 0 0 0 0 
0 0 0 0 0 0 0 0 0 
0 0 0 0 0 0 0 0 0 
0 0 0 0 0 0 6.27043e-10 8.24603e-10 0 
0 0 0 0 0 0 0 0 0 
0 0 0 0 0 0 0 4.9933e-10 0 
0 0 0 0 0 0 0 0 0 
0 0 0 0 0 0 0 0 0 
0 0 0 0 0 0 0 0 0 
0 0 0 0 1.56595e-10 0 0 0 0 
0 0 0 0 0 0 0 0 0 
0 0 0 0 0 0 0 0 0 
0 0 0 0 0 0 0 0 0 
0 0 0 0 0 0 0 0 0 
0 0 0 0 0 0 0 0 0 
0 0 0 0 0 0 0 0 0 
0 0 0 7.44578e-11 0 0 0 0 0 
0 0 0 0 0 0 0 0 0 
0 0 0 0 0 0 0 0 0 
0 0 0 0 0 0 0 3.78122e-10 0 
0 0 0 0 0 0 0 0 0 
0 0 0 0 0 0 0 0 0 
0 0 0 0 0 0 0 0 0 
0 0 0 0 0 0 0 0 0 
0 1.12291e-09 0 0 0 2.81863e-10 0 0 0 
0 0 0 0 0 0 0 0 0 
0 0 0 0 0 0 0 0 0 
0 4.27534e-10 0 0 0 0 0 5.34232e-10 0 
0 0 0 0 0 0 0 0 0 
0 0 0 0 0 0 0 0 0 
0 0 0 0 0 0 0 0 0 
0 0 0 0 0 0 3.73564e-10 0 0 
0 0 0 0 0 0 0 0 0 
0 0 0 0 0 0 0 0 7.05356e-10 
0 0 0 0 0 0 0 0 0 
0 0 0 9.88106e-10 0 0 0 0 0 
0 0 0 0 0 0 0 0 0 
0 0 0 0 0 0 0 0 0 
0 0 0 0 0 0 7.88717e-10 0 0 
0 0 0 0 0 0 0 1.50703e-10 0 
0 0 0 0 0 0 0 0 0 
0 0 0 8.53056e-10 2.99995e-10 0 0 0 0 
0 0 0 0 0 0 0 0 0 
0 0 0 0 0 0 0 0 0 
0 0 0 0 0 0 0 0 0 
0 0 0 0 0 0 0 0 0 
0 3.40529e-10 0 0 0 0 0 0 0 
0 0 0 0 0 0 0 0 0 
0 0 0 0 0 0 0 0 0 
0 0 0 0 0 0 0 0 0 
0 0 0 0 0 0 0 0 0 
0 0 0 0 0 0 0 0 0 
0 0 0 0 0 0 0 0 0 
0 0 0 0 0 0 0 0 9.97424e-12 
0 0 0 0 0 0 0 0 0 
0 5.21133e-10 0 0 0 0 6.25821e-10 0 0 
0 0 0 0 0 0 0 0 0 
0 0 0 0 0 0 0 0 0 
0 0 0 0 0 0 0 3.45887e-10 0 
0 7.72015e-10 0 0 0 0 5.37614e-10 0 0 
5.91356e-10 0 0 0 0 0 0 4.84162e-10 0 
0 0 0 0 0 0 0 0 0 
0 0 0 0 0 0 0 0 0 
0 0 0 0 0 0 0 0 0 
0 3.17719e-11 0 0 0 0 3.91836e-10 0 0 
0 0 0 0 0 0 0 0 0 
0 0 0 0 0 0 0 0 0 
0 0 0 0 0 0 0 0 0 
0 0 0 0 0 0 0 0 0 
0 0 0 0 0 0 0 0 0 
3.90122e-10 0 0 0 0 0 0 0 0 
0 0 0 0 0 0 0 0 0 
0 0 0 0 0 0 0 5.62785e-10 0 
0 0 0 0 0 0 0 0 0 
0 0 0 0 0 0 0 0 0 
0 0 0 0 0 6.60926e-10 0 0 0 
0 0 0 0 0 0 0 0 0 
0 0 0 0 7.72292e-10 0 4.6953e-10 0 0 
0 0 0 0 0 0 0 0 0 
0 0 0 0 0 0 0 0 0 
0 0 0 0 0 0 0 0 0 
0 0 0 0 0 0 0 0 0 
0 0 0 0 0 0 0 0 0 
0 0 0 0 0 0 0 0 0 
0 0 0 0 0 0 0 0 0 
0 0 0 0 0 0 0 0 0 
5.51633e-10 0 0 0 0 0 0 0 0 
0 0 0 1.62574e-10 0 0 0 0 0 
0 0 1.99609e-11 0 0 0 0 0 0 
0 0 0 0 0 0 0 0 0 
0 0 0 0 0 0 0 0 0 
0 0 0 0 0 0 0 0 0 
0 0 0 0 0 0 0 0 0 
7.59194e-10 0 3.89105e-10 3.09917e-10 0 0 0 0 0 
0 0 0 0 0 0 0 0 0 
0 0 0 0 0 0 0 0 0 
0 0 0 3.06557e-10 0 0 0 0 0 
0 0 0 0 0 0 6.31722e-10 0 0 
0 0 0 0 0 0 0 0 0 
0 0 0 0 0 0 0 0 0 
0 0 0 0 0 0 0 0 0 
0 0 0 0 0 0 0 0 0 
0 0 0 0 0 0 0 0 0 
0 0 0 0 0 0 0 0 0 
0 0 0 0 0 0 0 0 0 
0 0 0 0 0 0 0 0 0 
0 0 0 0 0 0 0 0 0 
0 0 0 0 0 0 0 0 0 
0 0 4.24247e-10 0 0 0 0 0 0 
0 0 0 0 0 0 0 0 0 
0 0 0 0 0 0 0 0 0 
0 0 0 0 0 0 0 0 0 
4.09365e-10 0 0 0 0 0 0 6.54008e-10 0 
0 0 0 0 0 0 0 0 0 
0 0 0 0 0 0 0 0 0 
2.47848e-10 0 0 0 5.7651e-10 0 0 0 0 
0 0 0 0 0 0 0 0 0 
0 0 0 0 0 0 0 0 0 
0 0 0 0 0 0 0 0 0 
0 0 0 5.7881e-10 0 0 8.74046e-10 0 0 
0 0 0 6.68194e-11 0 0 0 0 0 
0 0 0 0 0 0 0 0 0 
0 0 0 0 0 0 0 0 0 
0 0 0 0 0 0 0 5.89196e-10 0 
0 0 0 2.32117e-10 0 0 0 0 0 
0 0 0 0 0 5.69674e-10 0 0 0 
0 0 0 0 0 0 0 0 0 
0 0 0 0 0 0 0 1.06887e-09 0 
0 0 0 0 0 0 0 0 0 
0 0 0 0 0 0 0 0 0 
0 0 6.90495e-10 0 0 0 0 0 0 
0 0 0 0 0 0 0 0 0 
0 0 0 0 0 0 0 0 0 
0 0 6.06999e-10 0 0 0 0 0 0 
0 0 0 0 0 0 0 0 0 
0 0 0 0 0 0 4.4701e-10 0 0 
0 0 0 0 0 5.10784e-10 0 0 0 
4.79268e-10 0 0 0 0 0 0 0 0 
0 0 0 0 7.2761e-10 0 0 0 0 
0 0 0 0 0 0 0 0 0 
0 0 0 0 0 0 0 0 0 
0 0 0 0 0 0 0 0 0 
0 3.88013e-10 0 3.67706e-10 0 0 0 0 0 
0 0 0 6.0977e-10 0 0 0 0 0 
0 0 0 0 0 0 0 0 0 
0 0 0 0 0 0 0 0 0 
0 0 5.19696e-10 0 0 0 0 0 0 
0 0 0 0 0 0 0 0 0 
0 0 0 0 0 0 0 0 0 
0 0 3.03938e-10 0 0 0 0 0 0 
0 0 0 0 0 0 0 0 0 
0 0 0 0 0 0 6.4745e-10 0 0 
0 0 0 0 0 0 0 8.93451e-10 0 
0 0 0 0 0 0 0 0 0 
0 0 0 0 0 0 0 0 0 
0 0 0 0 0 0 0 0 0 
0 0 0 0 0 3.35412e-10 0 0 0 
0 8.64183e-10 0 0 0 0 0 0 0 
0 0 0 0 0 0 0 0 0 
0 0 0 0 0 6.8551e-10 0 0 0 
0 0 0 0 0 0 0 0 0 
0 0 0 0 0 0 0 
feature_5 1 2500 float
0 0 0 0 0 0 0 0 0 
0 0 0 0 0 0 0 0 0 
0 0 0 0 0 0 0 0 0 
0 0 0 0 0 0 4.46072e-10 0 0 
1.294e-10 0 0 0 0 4.20975e-10 0 0 0 
0 0 0 0 0 0 0 0 0 
0 8.6413e-10 0 0 0 0 0 0 0 
0 0 0 0 0 0 0 0 0 
0 0 0 0 0 0 0 0 0 
0 0 0 0 0 0 0 1.03661e-09 0 
0 0 7.25905e-10 0 0 0 0 0 0 
3.29225e-08 0 9.92213e-10 0 0 0 0 0 0 
0 0 1.06795e-10 0 3.35238e-10 0 0 0 0 
0 0 0 0 0 0 0 0 0 
0 0 0 0 0 0 0 0 0 
0 0 0 0 0 0 5.0122e-10 0 0 
0 0 0 0 0 0 0 0 6.46484e-10 
0 0 0 0 0 0 7.76907e-11 0 0 
0 0 0 0 0 0 0 0 0 
0 0 0 0 0 0 0 0 0 
0 0 0 0 0 0 3.13818e-10 0 0 
0 0 0 3.05941e-08 0 0 2.7169e-10 0 2.48851e-08 
0 0 2.11926e-10 4.87091e-10 0 0 0 0 0 
0 0 0 0 0 0 0 0 0 
0 0 1.40843e-08 0 0 0 0 0 0 
0 0 0 0 0 0 0 0 9.30729e-10 
0 0 0 0 0 0 0 0 0 
0 0 1.47876e-08 0 0 0 0 0 0 
0 0 0 0 0 0 0 4.68098e-10 0 
0 0 0 0 0 0 0 0 0 
0 0 0 0 0 0 0 0 0 
0 0 0 0 0 0 0 1.70921e-11 0 
0 0 0 0 6.82068e-10 0 0 0 0 
0 0 0 3.89022e-11 0 0 0 0 0 
0 0 0 0 0 0 0 0 0 
0 0 0 0 0 0 0 0 0 
0 0 0 0 0 0 0 0 0 
0 0 0 0 0 0 0 1.387e-08 0 
0 0 0 6.06118e-10 0 0 0 0 0 
0 0 0 0 0 0 0 0 0 
0 2.63263e-10 0 0 0 0 0 0 0 
4.08285e-10 0 0 0 0 0 0 0 0 
0 0 0 0 0 0 0 0 0 
1.95691e-10 0 0 0 7.02418e-10 0 0 0 0 
0 0 0 0 0 0 1.85087e-08 0 0 
0 0 0 1.27024e-07 0 0 0 0 4.0995e-09 
0 0 0 8.53426e-10 0 2.265e-10 0 0 0 
0 0 0 0 0 0 0 0 7.06347e-10 
0 0 0 0 0 0 0 0 0 
0 0 0 0 0 0 0 0 0 
0 0 0 0 0 0 0 0 0 
0 7.48727e-10 0 0 3.29198e-10 0 0 0 0 
0 0 0 0 0 0 0 0 0 
0 0 0 0 0 0 0 0 0 
0 0 0 0 0 0 0 0 0 
2.6504e-10 0 0 7.4979e-10 0 0 0 0 0 
2.332e-08 0 0 0 0 0 0 0 0 
0 0 0 0 0 0 0 1.09723e-09 0 
0 5.09548e-10 0 0 0 0 0 0 5.35039e-10 
0 2.69832e-10 0 0 0 0 0 1.79334e-10 1.43537e-10 
0 0 0 0 0 0 0 1.87649e-08 0 
0 0 0 0 0 5.83025e-10 0 0 0 
0 0 0 0 0 0 0 0 0 
0 0 0 0 0 0 0 0 0 
0 0 0 0 0 0 0 0 0 
0 0 0 0 0 0 0 0 0 
0 0 0 0 0 0 0 0 0 
0 0 0 0 0 0 0 0 0 
0 0 0 0 0 0 0 0 0 
0 0 0 0 0 0 0 0 0 
0 0 0 0 0 0 0 0 0 
0 0 0 0 0 0 5.95179e-10 3.47462e-10 0 
0 0 0 0 0 0 0 0 0 