# vtk DataFile Version 5.1
vtk output
ASCII
DATASET STRUCTURED_POINTS
DIMENSIONS 50 50 1
SPACING 1 1 1
ORIGIN 0 0 0
POINT_DATA 2500
FIELD FieldData 6
feature_1 1 2500 float
0 0 0 0 9.47452e-10 6.64423e-10 0 0 0 
0 0 0 0 0 0 0 0 0 
0 0 0 0 0 0 9.33486e-10 0 0 
0 0 0 0 0 0 0 0 0 
0 0 0 0 0 0 0 0 0 
0 0 0 0 0 0 0 0 0 
0 0 8.77733e-10 0 0 0 0 0 0 
0 0 0 0 0 0 0 0 0 
0 0 0 0 0 0 0 0 0 
0 0 0 0 0 0 0 0 0 
1.38618e-10 0 0 0 0 0 0 0 4.74319e-10 
0 0 0 0 0 0 0 0 0 
0 0 0 0 0 0 0 0 0 
0 0 0 0 0 0 0 0 0 
0 0 0 0 0 0 0 0 0 
0 0 0 0 0 0 0 0 0 
0 5.64619e-10 0 0 0 0 0 0 0 
0 0 9.10344e-10 0 0 0 0 0 0 
0 0 0 0 0 0 0 0 0 
0 0 0 0 0 0 0 0 0 
0 0 0 0 0 0 0 0 0 
0 0 0 0 0 0 0 0 0 
0 0 0 0 0 0 0 0 0 
0 0 0 0 0 0 0 0 0 
0 0 0 0 4.87001e-10 0 0 8.86509e-11 7.97261e-10 
0 0 0 0 0 0 0 0 0 
0 0 0 0 0 0 0 0 0 
0 0 0 0 0 0 0 0 1.05096e-10 
0 0 0 0 0 0 0 0 0 
0 0 0 0 0 0 0 0 0 
0 0 0 0 0 0 0 0 0 
0 0 0 8.87912e-10 0 0 0 0 0 
0 0 0 0 0 0 0 0 0 
0 0 0 0 0 0 0 0 0 
0 0 0 0 0 0 0 0 0 
0 0 0 1.99924e-10 0 0 0 0 0 
0 0 0 0 0 0 0 0 0 
0 0 0 0 0 5.44624e-10 0 0 0 
0 0 0 0 0 0 0 0 0 
0 0 0 0 0 0 0 6.07525e-10 0 
0 0 0 6.93063e-11 0 0 0 0 2.69654e-08 
4.42721e-10 0 0 0 0 0 0 0 6.77199e-06 
5.03873e-08 0 0 0 0 0 0 0 0 
0 0 0 0 0 0 0 0 0 
0 0 0 0 0 0 0 0 0 
0 0 0 6.78042e-06 0 0 0 0 0 
0 0 0 0 6.79285e-06 0 0 0 0 
0 0 0 0 0 0 0 0 0 
0 0 0 0 0 0 0 0 0 
0 0 0 0 0 0 0 0 0 
0 0 0 0 0 0 0 0 1.65603e-10 
0 0 0 0 0 0 0 0 2.92288e-08 
0 0 0 0 0 0 0 0 0 
0 0 2.44457e-09 0 0 0 0 0 0 
0 0 0 0 0 0 0 0 0 
0 0 0 0 0 0 0 0 0 
7.68456e-10 0 0 0 0 0 0 0 0 
0 0 0 7.18683e-06 0 0 0 0 0 
0 0 0 0 0 0 0 0 0 
0 0 3.20478e-08 0 6.77051e-10 0 0 0 0 
6.87094e-06 0 0 0 0 3.64434e-10 0 0 0 
0 0 0 0 2.15213e-10 0 0 0 0 
0 0 7.19111e-06 0 0 7.02538e-06 0 7.35813e-06 3.46589e-10 
0 0 0 0 0 0 0 0 0 
0 0 0 0 0 0 8.09833e-06 8.39628e-06 0 
0 3.75017e-08 6.88793e-06 0 0 3.36689e-08 0 0 0 
0 0 0 0 0 0 0 0 0 
0 0 0 0 0 6.03871e-08 7.16722e-06 0 0 
0 0 0 0 0 0 0 0 0 
0 0 0 0 8.5992e-10 0 0 0 0 
0 5.67994e-10 0 0 7.25332e-06 0 0 3.59013e-08 0 
6.93446e-06 0 0 0 0 0 0 0 0 
0 0 0 5.82943e-10 0 0 3.35474e-10 0 0 
0 1.48947e-08 0 0 0 0 0 0 0 
0 0 0 0 0 0 0 0 6.80416e-06 
0 0 6.80928e-06 0 0 0 0 0 0 
0 2.52971e-10 0 0 0 0 0 0 0 
0 0 4.28354e-10 0 0 0 0 0 0 
0 0 0 0 0 0 0 0 0 
0 1.89507e-10 0 0 0 0 0 0 0 
0 1.821e-10 0 0 2.24439e-08 0 0 5.2516e-08 0 
0 0 0 0 0 0 0 0 0 
0 0 0 0 0 0 0 0 0 
0 0 0 0 0 0 0 0 0 
0 0 8.96264e-10 0 0 6.91611e-06 0 2.59747e-07 7.3893e-06 
0 0 0 0 0 0 0 0 0 
0 0 0 0 0 0 0 6.8699e-06 6.46067e-08 
0 0 0 0 0 0 0 0 0 
0 0 0 0 0 0 0 0 9.41007e-10 
0 0 0 0 0 0 0 0 0 
0 4.75472e-08 0 7.64001e-06 0 0 0 0 0 
1.19435e-10 1.65064e-08 6.79866e-06 3.20104e-08 0 0 0 2.44789e-10 0 
0 0 0 0 5.67114e-08 0 0 0 0 
0 0 0 0 0 0 0 0 0 
0 0 0 0 0 0 0 0 0 
0 0 0 0 0 0 0 0 0 
7.45571e-06 0 0 7.80426e-09 0 3.80201e-10 0 0 0 
0 0 2.23879e-08 0 0 0 9.14028e-09 0 0 
0 0 0 0 6.1127e-07 0 0 0 0 
0 0 0 0 0 0 0 2.57398e-10 0 
2.67146e-11 0 0 7.84429e-10 0 0 0 0 0 
0 0 6.84006e-06 0 0 0 3.89722e-08 0 0 
0 2.54019e-12 0 0 7.64295e-11 0 0 0 6.97796e-06 
0 0 0 0 0 8.109e-06 0 0 7.50148e-06 
0 7.56104e-06 0 0 0 0 9.05633e-10 0 0 
0 0 0 0 0 0 0 0 0 
0 0 0 0 0 0 0 0 0 
0 0 7.07982e-06 0 7.22927e-06 7.43183e-08 8.60382e-06 9.305e-06 0 
0 0 0 4.90293e-08 0 0 0 0 0 
0 5.71894e-08 0 0 0 7.99626e-06 0 0 0 
0 0 0 0 0 0 0 0 0 
0 0 0 3.23293e-10 0 0 0 0 0 
0 0 0 0 0 0 0 0 0 
0 0 0 8.4144e-06 4.22886e-08 9.79078e-10 0 0 0 
0 0 0 0 0 0 0 0 7.4184e-06 
0 0 7.43823e-06 0 0 0 0 0 0 
0 0 0 0 0 0 0 0 0 
0 0 0 0 0 0 0 0 0 
0 0 0 0 0 0 0 0 3.1294e-08 
0 0 0 0 0 0 0 0 0 
0 7.09011e-06 0 7.53851e-06 0 0 0 2.93346e-08 0 
0 0 0 0 0 0 0 0 0 
0 0 0 0 0 0 0 0 2.4871e-08 
8.01345e-06 8.01826e-06 0 0 0 0 0 6.78824e-06 0 
0 0 0 0 2.04391e-08 0 0 0 0 
0 0 0 0 0 0 0 0 6.88753e-08 
0 0 0 0 0 0 0 0 0 
0 0 0 0 0 0 0 0 0 
0 0 0 0 1.57265e-08 0 0 0 0 
0 0 0 4.39864e-08 0 0 3.10618e-08 6.86389e-06 0 
0 0 0 0 0 0 7.18324e-06 0 0 
0 0 0 7.13965e-06 0 7.12149e-06 0 0 6.83499e-06 
2.78617e-08 0 0 0 8.71587e-10 0 0 0 0 
0 0 0 0 0 0 0 0 0 
0 0 0 0 0 0 0 0 0 
0 0 0 0 0 0 0 0 0 
0 0 0 7.20057e-06 0 0 0 0 0 
0 1.43961e-08 0 0 0 0 0 0 0 
0 0 0 0 0 0 0 0 0 
0 0 0 0 0 0 0 0 0 
0 0 0 0 0 0 0 0 0 
6.95309e-06 0 0 0 0 8.21105e-06 0 0 0 
0 0 0 0 0 0 0 1.04875e-08 0 
0 0 0 0 0 0 1.62696e-10 0 0 
0 0 0 0 0 0 0 0 0 
0 0 0 0 0 0 0 0 0 
0 0 0 0 9.57421e-11 0 0 2.17442e-08 7.52944e-06 
3.14684e-06 8.61575e-06 0 0 0 0 0 0 0 
0 1.00257e-09 0 0 0 0 0 0 0 
3.2106e-08 0 0 0 0 0 0 0 0 
0 0 0 0 0 0 0 0 0 
0 0 0 0 0 0 0 0 0 
0 0 6.97172e-06 0 0 7.64598e-06 0 0 0 
6.90772e-06 0 0 0 1.89908e-08 0 0 0 0 
0 0 0 0 6.76966e-06 3.25952e-08 0 0 0 
0 0 0 2.96636e-10 0 0 0 0 0 
0 0 0 0 0 0 0 0 6.65801e-08 
0 0 0 0 0 0 0 0 0 
0 0 0 0 0 0 0 7.05593e-06 0 
6.70316e-06 0 0 0 6.79784e-06 0 9.03775e-11 0 0 
0 0 0 0 0 0 0 0 0 
0 0 0 0 0 0 0 0 0 
6.88111e-06 0 0 0 6.87765e-06 0 0 0 0 
0 0 0 0 0 0 0 0 0 
0 0 0 2.54153e-08 0 0 0 0 0 
0 0 8.94332e-10 4.97202e-12 0 0 0 0 0 
0 0 0 0 0 0 0 0 0 
0 0 0 0 0 0 0 8.17844e-06 0 
0 0 0 2.45021e-09 0 0 0 0 0 
0 0 0 0 0 0 0 0 0 
0 0 2.92904e-08 6.81574e-06 1.39058e-08 0 0 0 0 
0 0 0 0 0 0 0 0 0 
0 0 0 0 0 0 0 0 0 
0 0 0 8.05757e-06 0 0 0 0 0 
0 0 0 6.79448e-06 5.47718e-10 0 0 0 0 
0 0 0 0 0 0 0 0 0 
0 0 0 0 0 0 0 0 0 
0 0 0 0 0 0 0 0 0 
0 0 0 0 0 0 0 0 0 
0 0 0 0 0 0 0 6.93046e-10 0 
0 0 7.19165e-10 0 0 0 0 0 0 
4.90005e-08 0 0 0 0 0 0 0 6.48885e-10 
7.23225e-06 0 0 0 0 0 0 0 0 
0 0 5.73706e-10 0 0 0 0 0 0 
0 0 0 0 0 0 0 6.78358e-06 1.72079e-10 
1.10033e-08 0 0 0 0 0 0 0 0 
0 0 0 0 3.15888e-08 6.77958e-06 4.33026e-08 0 0 
0 0 0 0 7.18663e-06 0 1.05233e-07 6.88629e-06 0 
0 0 0 0 0 0 0 0 0 
0 0 0 0 0 0 0 0 0 
0 0 0 0 0 0 0 4.04717e-08 6.8839e-06 
4.02004e-08 0 0 0 0 0 3.62452e-08 0 0 
0 0 0 0 0 0 0 0 0 
0 0 1.56917e-08 0 0 0 0 0 0 
0 0 0 0 0 0 0 0 0 
2.3789e-11 0 0 6.77681e-06 0 0 0 0 0 
0 0 0 0 0 0 0 0 0 
0 0 6.96497e-06 4.58859e-08 0 0 0 0 0 
0 9.14653e-10 0 0 0 0 0 0 0 
0 0 0 0 0 0 0 0 0 
0 0 0 0 0 0 0 0 0 
0 0 0 0 0 0 0 8.03255e-06 1.28209e-10 
0 0 0 0 8.02683e-06 8.10464e-06 0 0 0 
6.98843e-06 0 0 0 0 0 0 0 0 
0 0 0 0 0 0 0 0 0 
0 0 0 0 0 0 0 0 0 
0 0 1.14682e-11 0 0 0 0 0 0 
1.05829e-09 0 0 0 0 0 0 4.84327e-10 0 
0 0 0 0 3.80597e-08 0 0 0 0 
0 0 0 0 0 6.3109e-10 0 0 0 
0 0 0 0 0 0 0 0 0 
0 0 0 0 0 0 0 0 0 
0 0 1.75683e-08 0 0 0 2.56146e-10 0 0 
0 0 0 0 0 0 0 0 0 
8.44047e-06 0 8.36585e-08 7.2173e-06 0 0 0 0 0 
0 0 0 0 0 0 0 0 0 
0 0 0 0 0 0 0 0 0 
0 0 0 0 0 2.31623e-08 6.80388e-06 0 0 
7.00285e-06 0 0 0 0 0 0 0 0 
0 9.79902e-10 0 0 5.36648e-10 8.84709e-06 0 7.48891e-06 0 
0 0 0 0 0 0 0 0 1.18713e-08 
2.77222e-08 0 0 0 1.3682e-08 0 0 0 0 
0 0 7.07008e-10 0 0 0 0 0 0 
0 0 0 0 0 5.5059e-08 0 0 0 
0 0 0 0 0 0 0 6.84178e-06 0 
0 0 0 0 0 0 0 0 0 
0 8.17768e-06 0 0 0 6.91022e-06 0 0 6.88296e-06 
0 0 0 0 8.40277e-10 0 0 2.27905e-10 0 
0 0 0 0 9.8948e-10 1.77373e-10 0 0 0 
2.87532e-08 6.97921e-06 0 0 0 0 0 0 0 
0 0 0 0 0 0 0 0 0 
3.60807e-08 0 0 0 7.05677e-06 0 8.42079e-06 0 7.1469e-06 
0 0 0 0 0 0 0 0 0 
0 0 0 0 0 0 0 0 0 
0 0 0 0 0 0 0 0 0 
0 0 0 0 0 5.2011e-10 0 0 0 
0 0 0 0 0 6.79263e-06 2.33179e-08 0 0 
6.31478e-08 0 4.23583e-08 0 0 0 0 3.21548e-08 6.87253e-06 
0 0 0 0 0 0 0 0 0 
0 0 0 0 0 0 0 0 0 
0 0 0 0 2.7903e-11 0 0 0 0 
0 0 0 0 0 0 0 0 0 
0 0 0 0 0 0 0 0 0 
0 0 0 0 0 0 0 0 0 
0 0 0 0 0 0 0 0 0 
0 0 0 0 0 0 0 0 0 
0 0 0 0 0 0 0 0 0 
0 0 0 0 0 0 1.94299e-08 0 0 
0 6.13612e-10 0 0 0 0 0 0 0 
0 0 0 0 0 0 0 0 0 
0 0 0 0 0 0 0 1.07845e-09 0 
0 0 0 0 0 0 0 0 0 
0 0 0 0 0 0 0 0 0 
0 0 0 0 0 0 0 0 0 
0 0 0 0 0 5.49968e-09 0 3.43896e-10 0 
0 0 0 0 0 0 0 0 0 
0 0 0 0 0 0 0 0 0 
0 0 0 0 0 0 0 0 0 
0 0 0 0 0 0 0 0 0 
0 0 0 0 0 0 0 0 0 
0 0 0 9.86844e-10 0 0 0 0 0 
0 0 0 0 0 0 0 0 0 
0 0 0 0 0 0 0 0 0 
0 0 0 0 0 0 0 0 0 
0 0 0 0 0 0 7.05839e-10 0 8.83382e-11 
0 0 0 0 0 0 0 0 0 
0 0 0 0 0 0 0 0 0 
0 0 0 0 0 0 0 0 0 
1.58633e-10 5.3361e-10 0 0 0 0 0 6.95158e-10 0 
0 0 0 0 0 0 0 0 0 
0 0 0 0 0 0 0 0 0 
0 0 0 0 0 0 0 0 0 
0 0 0 0 0 0 0 0 0 
0 0 0 0 0 7.84048e-11 0 0 0 
0 0 0 0 0 0 0 0 0 
0 0 0 0 0 0 0 0 0 
0 0 0 0 0 0 0 0 0 
0 0 0 0 0 0 0 
feature_2 1 2500 float
0 0 0 0 0 0 0 0 0 
0 0 0 0 0 0 0 0 8.63309e-13 
0 0 0 0 0 0 0 0 0 
0 0 0 0 0 0 0 0 0 
0 0 0 0 0 0 0 0 0 
0 0 0 4.35726e-10 0 0 0 0 0 
0 0 0 0 0 0 4.47621e-10 0 0 
0 0 0 0 0 0 0 0 0 
0 0 0 0 0 0 0 0 0 
0 0 0 0 0 0 7.84208e-10 0 0 
0 0 0 9.29674e-11 0 0 0 0 0 
2.67676e-08 0 0 0 0 0 0 0 0 
0 0 0 0 0 0 0 0 0 
0 0 0 0 0 0 0 0 0 
0 0 0 0 0 0 0 0 0 
0 0 0 0 0 0 0 0 0 
0 0 0 0 0 0 0 0 0 
0 0 0 0 0 0 0 0 0 
0 0 0 0 0 0 0 0 0 
0 0 0 0 0 0 0 0 0 
0 0 0 0 0 0 0 0 0 
0 0 0 0 0 0 0 0 0 
0 0 0 0 0 0 0 0 0 
0 0 0 5.6307e-10 0 0 0 0 0 
0 0 0 0 0 0 0 0 0 
0 0 9.88273e-10 0 0 0 0 0 0 
0 7.45139e-10 0 0 0 0 0 0 0 
0 0 1.52983e-08 0 0 0 0 0 0 
0 0 0 0 0 0 0 0 0 
0 0 0 0 4.24336e-10 0 0 0 0 
0 0 0 0 0 0 0 0 0 
0 0 0 0 0 0 0 0 0 
0 0 0 0 0 0 0 0 0 
0 0 0 0 0 0 0 0 0 
0 0 0 0 0 0 0 0 0 
0 0 0 0 0 0 0 9.14262e-10 0 
0 0 0 0 0 0 0 0 0 
0 0 1.20268e-08 0 0 0 0 0 0 
0 0 0 0 0 0 0 0 0 
0 0 0 0 0 0 0 6.56094e-10 0 
0 0 0 0 0 0 0 0 0 
0 0 0 0 0 0 0 0 0 
0 0 0 0 0 0 0 0 0 
0 0 0 0 0 0 7.07523e-10 3.54121e-10 0 
0 0 0 0 0 0 1.70351e-08 0 0 
0 0 0 9.40127e-08 0 0 0 0 0 
0 0 0 0 0 0 0 0 0 
0 0 0 0 0 0 0 0 0 
0 0 0 0 0 0 0 0 0 
0 0 0 0 0 0 0 0 0 
0 0 0 0 0 0 0 0 0 
0 0 0 0 0 0 0 0 0 
0 0 0 0 0 0 0 0 0 
0 0 0 0 0 0 0 0 0 
0 0 0 0 0 0 0 0 0 
0 0 0 0 0 0 0 0 0 
0 0 0 0 0 0 0 0 0 
0 0 0 0 0 0 0 0 0 
0 0 0 0 0 0 0 0 0 
0 0 0 0 0 0 0 0 0 
0 0 0 0 0 0 0 0 0 
0 0 0 0 0 0 0 0 0 
5.2729e-10 0 0 0 0 0 0 0 0 
0 0 0 0 0 0 0 0 0 
0 0 0 0 0 0 0 0 0 
0 0 2.34181e-10 0 0 0 0 0 0 
0 0 0 0 0 0 0 0 0 
0 0 0 0 0 0 0 0 0 
0 0 0 0 0 0 0 0 0 
0 0 0 0 0 0 0 0 0 
0 0 0 0 0 0 0 0 0 
0 0 0 0 0 0 0 0 0 
0 0 0 0 0 0 0 0 0 
0 0 0 0 0 0 0 5.87992e-11 0 
0 0 0 0 0 5.74895e-10 0 0 0 
0 0 2.12097e-11 0 0 0 0 0 0 
0 0 0 0 0 0 0 0 0 
0 0 0 0 0 0 0 0 0 
0 0 0 0 0 0 1.97626e-09 0 3.47764e-10 
0 0 0 0 0 0 0 0 0 
0 0 3.58519e-10 0 0 0 0 0 0 
0 0 0 0 0 0 0 0 0 
0 0 0 0 0 0 0 0 0 
0 0 0 0 0 0 0 0 0 
4.64645e-10 0 0 0 0 0 0 6.82851e-07 3.2342e-07 
0 0 0 0 0 0 0 0 0 
0 0 0 0 0 0 0 0 0 
0 0 0 2.09766e-10 0 0 0 0 0 
0 0 0 0 0 0 0 0 0 
0 0 0 0 0 0 0 0 0 
0 0 0 1.18621e-07 0 0 0 0 0 
0 9.45022e-10 0 0 0 0 0 0 0 
0 0 0 0 0 0 0 0 0 
0 0 0 0 0 0 0 0 0 
0 0 0 4.44782e-10 0 0 0 0 0 
0 0 0 0 0 0 0 0 0 
0 0 0 0 0 0 0 0 0 
0 0 0 0 0 0 0 0 0 
0 0 0 0 0 0 0 0 0 
0 0 0 0 0 0 0 0 0 
0 0 0 0 0 3.01561e-10 0 0 0 
0 0 0 0 0 0 1.95971e-10 0 0 
0 0 0 0 0 0 0 0 0 
0 5.57733e-10 7.8861e-10 0 0 0 0 0 0 
0 0 0 0 0 0 0 0 0 
0 0 0 0 0 0 0 0 0 
0 0 0 2.40128e-11 0 0 0 0 0 
0 0 0 0 0 0 0 0 0 
0 0 0 0 0 0 0 0 0 
8.16824e-10 0 0 0 0 0 0 0 0 
0 0 0 0 0 0 0 0 0 
0 0 0 0 0 0 0 0 0 
0 0 0 0 0 0 0 0 0 
0 0 0 0 0 0 0 0 0 
0 0 0 0 0 0 0 0 0 
0 0 0 0 0 0 0 0 0 
0 0 0 0 0 4.09131e-11 0 0 0 
0 0 0 0 0 0 0 0 0 
0 0 0 0 0 0 0 0 0 
0 0 0 0 0 0 0 0 0 
0 0 0 0 0 0 0 0 0 
0 0 0 0 0 0 0 0 0 
0 0 0 0 0 0 0 0 0 
0 0 0 0 0 0 0 0 0 
0 0 0 0 7.67429e-10 0 0 0 0 
0 0 0 0 0 0 0 0 0 
0 0 0 0 0 0 0 0 0 
0 0 0 8.30166e-10 0 0 0 0 0 
0 0 0 0 0 0 0 0 0 
0 0 0 0 0 0 0 0 0 
0 0 0 0 0 0 0 0 0 
0 0 0 0 0 0 0 0 0 
0 0 0 0 0 0 0 0 0 
0 0 0 0 1.61982e-10 0 0 0 0 
0 0 0 0 0 0 0 2.50518e-09 0 
0 0 0 0 0 0 0 0 0 
0 0 0 0 0 0 0 0 0 
0 0 0 0 0 0 0 0 0 
0 0 0 0 0 0 0 0 0 
0 0 0 0 0 4.37623e-10 0 0 0 
0 0 0 0 0 0 0 0 0 
0 0 0 0 0 0 0 0 1.85842e-11 
0 0 0 0 0 0 0 0 0 
0 0 0 0 0 0 0 0 0 
0 0 0 0 0 0 0 0 0 
0 0 0 0 0 0 0 0 0 
0 2.2786e-08 0 0 0 0 0 0 0 
0 0 0 0 0 0 0 0 0 
0 0 0 0 0 0 0 0 0 
0 0 0 0 0 0 0 0 0 
0 0 0 0 0 0 0 0 0 
0 5.09336e-10 0 0 0 0 0 6.19085e-10 0 
0 0 0 0 0 1.89652e-08 0 0 0 
0 0 0 0 0 0 0 0 0 
0 0 0 0 0 0 0 4.16274e-10 1.1669e-08 
0 0 0 0 0 0 0 0 0 
0 0 0 0 0 0 0 0 0 
0 0 0 0 0 0 0 0 0 
0 0 0 0 0 0 0 0 0 
0 0 0 0 0 0 0 0 0 
0 0 0 0 0 0 0 0 0 
0 0 0 0 0 0 0 0 0 
8.3989e-10 0 0 0 0 0 0 0 0 
0 0 0 0 0 0 0 0 0 
0 0 0 0 0 0 0 0 0 
0 0 0 0 0 0 0 0 0 
0 0 0 0 0 0 0 0 0 
0 0 0 0 0 0 0 0 0 
0 0 0 0 0 0 0 0 0 
0 0 0 0 0 0 0 0 4.45972e-11 
0 0 0 0 0 0 0 0 0 
0 0 0 0 0 0 0 0 0 
0 0 0 0 0 0 0 0 0 
0 0 0 0 0 0 0 0 0 
0 0 0 0 0 0 0 0 0 
0 0 0 0 0 0 0 0 0 
0 0 0 0 0 0 0 0 0 
0 0 0 0 0 0 0 0 0 
0 0 0 0 0 0 0 0 0 
0 0 0 0 0 0 0 6.62936e-12 1.82979e-10 
0 0 0 0 0 0 0 0 0 
0 0 0 0 0 0 0 0 0 
0 0 0 0 0 0 0 0 0 
0 0 0 3.78765e-10 0 8.58936e-10 0 0 0 
0 0 0 0 0 0 0 0 0 
0 3.09926e-10 7.28424e-10 0 0 0 0 0 0 
0 0 0 0 0 0 0 0 0 
0 0 0 0 0 0 0 0 0 
0 0 0 0 0 0 0 0 0 
0 0 0 0 0 0 0 0 0 
0 0 0 0 0 0 0 0 0 
6.72166e-10 0 0 0 0 0 0 0 0 
1.25775e-10 0 0 0 0 0 0 0 0 
0 0 0 0 0 0 0 0 0 
0 0 0 0 0 0 0 0 0 
0 0 0 0 0 0 0 0 0 
0 0 0 0 0 0 0 0 0 
5.52111e-10 0 0 0 0 0 0 0 0 
0 0 0 0 0 0 0 0 0 
0 0 0 0 0 0 0 0 0 
0 2.63892e-10 0 0 0 0 0 0 0 
0 0 0 0 0 0 0 0 0 
0 0 0 0 0 0 0 0 0 
0 0 0 0 0 0 0 0 0 
0 0 0 0 0 0 0 3.9444e-11 0 
1.17588e-09 0 0 0 0 0 0 0 0 
0 0 0 0 0 0 0 0 0 
0 0 0 0 0 0 0 0 0 
0 0 0 0 0 0 0 0 0 
0 0 0 0 0 0 0 0 0 
0 0 0 0 0 0 0 0 0 
1.35877e-09 0 0 0 0 0 0 0 0 
0 0 0 0 0 0 0 0 0 
0 0 0 0 0 0 0 0 0 
4.74969e-10 0 0 0 0 0 0 0 0 
0 0 0 0 0 0 0 0 0 
0 0 0 3.29074e-08 0 0 0 0 1.39935e-08 
0 0 0 0 0 0 0 0 0 
1.73477e-09 0 0 0 0 0 0 0 0 
0 0 0 0 0 0 0 0 0 
0 0 0 0 0 0 0 0 0 
0 0 0 0 0 0 0 0 0 
0 0 0 0 0 0 0 0 0 
0 0 0 0 0 0 0 0 0 
0 0 0 0 0 0 0 0 7.53992e-11 
3.37987e-10 0 0 0 0 0 0 0 0 
0 0 0 0 0 0 0 0 0 
0 0 0 2.24967e-09 1.83574e-08 0 0 0 0 
0 0 0 5.33419e-10 0 0 0 0 0 
0 0 0 0 0 0 0 0 4.49418e-12 
0 0 1.13957e-08 0 0 0 0 0 0 
0 0 0 0 0 0 0 0 0 
0 0 0 0 0 0 0 0 0 
0 0 0 0 0 0 0 0 2.35811e-08 
0 0 0 0 0 0 0 0 0 
0 0 0 0 1.27208e-10 0 0 0 0 
0 0 0 0 0 0 0 0 0 
0 0 0 0 0 0 0 0 0 
0 0 0 0 0 0 0 0 0 
0 0 0 0 0 0 0 0 0 
0 0 0 0 0 0 0 6.00096e-10 0 
0 0 0 0 0 0 0 0 0 
0 0 0 0 0 0 0 0 0 
0 3.2956e-10 0 0 0 0 0 0 0 
0 0 0 0 0 0 0 0 0 
0 0 0 0 0 0 0 0 0 
0 0 0 0 0 0 0 0 0 
0 0 0 8.50161e-10 0 0 0 0 0 
0 0 0 3.00653e-09 0 0 0 6.35717e-10 0 
0 0 0 0 0 0 0 0 0 
0 0 0 0 0 0 0 1.6777e-08 0 
0 0 0 0 0 0 0 0 0 
0 0 0 0 0 0 6.13349e-10 0 0 
0 0 0 0 0 0 0 0 0 
0 0 0 0 0 0 1.09796e-09 0 0 
0 0 0 0 0 0 0 0 0 
0 0 0 0 0 0 0 0 0 
0 0 0 0 0 0 0 0 0 
0 0 0 0 0 0 0 0 0 
0 0 0 0 0 0 0 0 0 
0 4.06832e-10 0 0 0 0 0 0 0 
0 0 5.55291e-10 0 0 0 0 0 0 
0 0 5.27091e-10 0 2.9114e-08 0 0 0 0 
0 0 0 0 0 0 0 0 0 
0 0 0 0 0 0 0 0 0 
0 0 0 0 0 0 0 3.84299e-10 0 
0 0 0 2.05756e-09 0 0 0 0 0 
0 0 0 0 0 0 0 6.79243e-10 0 
0 0 5.42912e-11 0 0 0 0 0 0 
0 0 1.70271e-09 0 0 0 0 0 2.1836e-08 
0 0 0 0 0 0 0 0 0 
0 0 0 0 0 0 0 0 0 
6.5943e-10 0 0 0 0 0 0 0 0 
0 0 0 0 0 0 0 0 0 
0 0 0 0 0 0 0 0 0 
3.08884e-10 0 0 0 0 0 0 0 0 
0 0 0 0 0 0 0 0 0 
0 0 0 0 0 0 0 
feature_3 1 2500 float
0 0 0 0 0 0 0 0 0 
0 0 0 0 0 5.59524e-10 0 0 0 
0 0 0 0 0 0 0 0 0 
0 0 0 0 0 0 0 0 0 
0 0 0 0 0 0 0 0 0 
0 0 0 0 0 5.68178e-10 0 0 0 
0 0 0 0 0 0 0 0 0 
2.37321e-11 0 0 0 0 0 0 0 0 
0 0 0 0 0 0 0 0 0 
0 0 0 0 0 0 0 0 0 
0 0 0 0 0 0 0 0 0 
0 0 0 0 0 0 0 0 0 
0 0 0 0 0 0 0 1.13229e-10 0 
0 0 0 1.23503e-09 0 0 0 0 0 
0 0 0 0 0 0 0 0 0 
0 0 0 0 0 0 0 0 0 
0 0 0 0 0 0 0 0 0 
0 0 0 0 0 0 0 0 0 
0 0 0 0 9.4726e-09 0 0 0 8.31962e-10 
0 0 0 0 0 0 0 0 0 
0 0 0 0 0 0 0 0 0 
0 0 0 0 0 0 0 0 0 
0 3.13891e-10 0 0 0 0 0 0 0 
0 0 0 0 0 0 0 0 0 
0 0 0 0 0 0 0 0 0 
0 0 0 0 0 0 0 0 0 
7.8386e-10 0 0 0 0 0 0 0 4.52673e-10 
0 0 0 0 0 0 0 0 0 
0 0 7.63407e-11 0 0 0 0 0 0 
0 0 0 0 0 0 0 0 4.27407e-10 
0 0 0 0 0 0 0 0 0 
0 0 0 0 0 0 0 0 0 
0 0 0 0 0 0 0 0 0 
0 0 0 0 0 0 0 0 0 
0 0 0 0 0 0 0 0 0 
0 0 0 0 0 0 0 0 0 
0 0 0 0 0 0 0 0 0 
0 0 0 0 0 0 0 0 0 
0 0 0 0 0 0 0 0 0 
0 0 0 0 1.13292e-10 0 0 0 0 
0 0 0 0 0 0 0 0 0 
0 0 0 0 0 0 0 0 0 
0 0 0 0 0 0 0 0 0 
0 0 0 0 0 0 0 0 0 
0 0 0 0 0 0 0 0 0 
0 0 0 0 0 0 0 0 0 
0 0 0 0 0 0 0 0 0 
0 0 0 0 0 0 0 0 0 
0 0 0 0 0 0 0 0 0 
0 0 0 0 0 0 0 0 0 
0 0 0 0 0 0 0 0 0 
0 0 0 0 0 0 0 0 0 
0 0 0 0 0 0 0 0 0 
0 0 0 0 0 0 0 0 0 
0 0 0 0 0 0 0 0 0 
0 0 0 0 0 0 0 0 0 
0 0 0 0 0 0 0 0 0 
0 0 0 0 0 0 0 0 0 
0 0 0 0 0 0 0 0 0 
0 0 0 0 0 0 0 0 0 
0 0 0 0 0 0 0 0 0 
0 0 0 0 0 0 0 0 0 
0 0 0 0 0 0 0 0 0 
0 0 0 0 0 0 0 0 0 
0 0 0 0 0 0 0 0 0 
0 0 0 0 0 0 0 0 0 
0 0 0 0 0 0 0 0 0 
0 0 0 0 0 0 0 0 0 
0 0 0 0 0 0 0 0 0 
0 0 0 0 0 0 0 0 0 
0 0 0 0 0 0 0 0 0 
0 0 0 0 0 0 0 0 0 
0 0 0 0 0 0 0 0 0 
0 0 0 0 0 0 0 0 0 
0 0 0 0 0 0 0 0 0 
0 0 0 0 0 0 0 0 0 
0 4.90882e-10 0 0 0 0 0 0 0 
0 0 0 0 0 0 0 0 0 
0 0 0 0 0 0 0 0 0 
0 0 0 0 0 0 0 0 0 
0 0 0 0 0 0 0 0 0 
0 0 0 0 0 0 0 0 0 
0 0 0 0 0 0 0 0 0 
0 0 0 0 0 0 0 0 0 
0 0 0 0 0 0 0 0 0 
0 0 0 0 0 0 0 0 0 
0 0 0 0 0 0 0 0 0 
0 0 0 0 0 0 0 0 0 
0 0 0 0 0 0 0 0 0 
0 0 0 0 0 0 0 0 0 
0 0 0 0 0 0 0 0 0 
0 0 0 0 0 0 0 0 0 
0 0 0 0 0 0 0 0 0 
0 0 0 0 0 0 0 0 8.87908e-10 
0 5.35334e-10 0 0 0 0 0 0 0 
0 0 0 5.49623e-11 0 0 6.0205e-10 0 0 
0 0 0 0 0 0 0 0 0 
0 0 0 0 0 0 0 0 0 
0 0 0 0 1.02212e-07 0 0 0 0 
0 0 0 0 0 0 0 0 0 
0 0 0 0 0 0 0 0 0 
0 0 0 0 0 0 0 0 0 
0 0 2.66766e-10 0 0 0 0 0 0 
0 0 0 0 0 0 0 0 0 
0 0 0 0 0 0 0 0 0 
0 4.40068e-10 0 0 0 0 0 0 0 
0 0 0 0 0 0 0 0 0 
0 0 0 0 0 0 0 0 0 
0 0 0 0 0 0 0 0 0 
0 0 0 0 0 0 0 0 0 
0 0 0 0 0 0 0 0 0 
3.77103e-10 0 0 0 0 0 0 0 0 
0 0 0 0 0 0 0 0 0 
4.2294e-10 0 0 0 0 0 0 0 0 
0 0 0 0 0 0 0 0 0 
0 0 0 0 0 0 0 0 0 
0 0 0 0 0 0 0 0 0 
0 0 0 0 0 0 0 0 0 
0 0 0 0 0 0 0 0 0 
0 0 0 0 0 0 0 0 0 
0 0 0 0 0 0 0 0 0 
0 0 0 0 0 0 6.04437e-10 0 0 
0 0 2.87364e-08 0 0 0 0 0 0 
0 0 0 0 0 0 0 0 0 
0 0 0 0 1.41945e-09 0 0 0 0 
0 0 5.98755e-09 0 0 0 0 0 0 
0 0 0 0 0 0 0 0 0 
0 0 0 0 0 0 0 0 0 
0 0 0 0 0 0 0 0 0 
0 0 0 0 0 0 0 0 5.48058e-10 
0 0 0 0 4.12577e-10 0 0 0 0 
0 0 0 0 0 0 0 0 0 
0 0 0 0 0 0 0 0 0 
0 0 0 0 0 0 0 0 0 
0 0 0 0 0 0 0 0 0 
0 0 0 0 0 0 0 0 0 
0 0 0 0 0 0 0 0 0 
0 0 0 0 0 0 0 0 0 
0 0 0 0 0 0 0 0 3.71106e-10 
0 0 0 0 0 0 0 0 0 
0 0 0 0 0 0 0 0 0 
0 0 0 0 0 0 0 0 0 
0 0 0 0 0 0 0 0 0 
0 0 0 0 0 0 0 0 0 
0 0 0 0 9.34307e-10 2.00132e-08 0 0 2.24169e-08 
0 0 0 0 0 0 0 6.45304e-10 0 
0 1.5832e-08 0 0 0 0 0 0 0 
0 0 0 0 0 0 0 0 0 
0 0 0 0 0 0 0 0 0 
0 0 0 0 0 0 0 0 0 
0 0 0 0 0 0 0 0 0 
0 0 0 0 0 7.80062e-10 0 0 0 
0 0 0 0 0 0 0 0 0 
0 0 0 0 0 2.94952e-10 0 0 0 
0 0 0 0 0 0 0 0 0 
0 2.17604e-10 0 0 0 0 0 0 0 
0 0 0 0 0 0 0 0 0 
0 0 0 0 0 3.08169e-10 0 0 0 
0 0 0 0 0 0 0 0 9.36735e-11 
0 0 0 0 0 0 0 0 0 
0 0 0 0 0 0 0 0 0 
5.41108e-10 0 0 0 0 0 0 0 0 
0 0 0 0 0 0 5.91946e-10 0 0 
0 0 0 0 0 0 0 0 0 
0 0 0 0 0 0 0 0 0 
0 0 0 0 0 0 0 0 0 
0 0 0 0 0 0 0 0 0 
0 0 0 0 0 0 0 8.32543e-11 0 
0 0 0 0 0 0 0 0 0 
0 0 0 0 0 0 0 0 0 
0 0 0 0 0 0 0 0 0 
0 0 0 0 0 0 0 0 0 
0 0 0 0 0 0 0 0 0 
0 0 0 1.9045e-10 0 0 0 0 0 
0 0 0 0 0 0 0 0 0 
0 0 0 0 0 0 0 0 0 
0 0 0 0 0 0 0 0 0 
0 0 0 0 0 0 0 0 0 
0 0 0 0 0 0 0 0 0 
0 0 0 0 0 0 0 0 0 
0 0 0 0 5.95098e-10 1.74161e-10 0 0 0 
0 4.19911e-10 0 0 0 0 0 0 0 
0 0 0 0 0 0 0 0 0 
0 0 0 0 0 0 0 0 0 
0 0 0 0 0 0 0 0 0 
0 0 0 0 0 0 0 0 0 
0 0 0 0 0 0 0 0 0 
0 0 0 0 0 0 0 0 0 
0 0 0 7.12891e-10 0 0 0 0 0 
0 0 0 0 0 0 0 0 0 
0 0 0 0 0 0 0 0 0 
0 0 0 0 0 0 0 0 0 
0 0 0 0 0 0 0 0 0 
0 0 0 0 0 0 0 0 0 
0 0 0 0 0 0 0 0 0 
0 0 0 0 3.87796e-10 0 0 0 0 
0 0 0 0 0 0 0 0 0 
0 0 6.06008e-10 0 0 0 0 0 0 
2.83074e-08 0 0 0 0 0 0 8.18279e-10 0 
0 0 0 8.17973e-10 0 0 0 0 0 
1.58016e-08 0 0 0 0 0 0 0 0 
0 0 0 0 0 0 0 0 0 
0 0 0 4.57579e-10 0 0 0 0 0 
0 0 0 0 0 0 0 0 0 
0 0 0 0 0 0 0 0 0 
0 0 0 0 0 0 0 0 0 
0 0 0 0 0 5.37312e-10 0 0 0 
0 0 0 0 0 0 0 0 0 
0 0 0 8.78899e-10 0 0 0 0 0 
0 0 0 0 0 0 0 0 0 
0 0 0 0 0 0 0 0 0 
0 0 0 0 0 0 0 0 0 
0 0 0 0 0 0 0 0 0 
0 0 0 0 0 0 0 0 0 
0 0 0 0 0 0 0 0 0 
0 0 0 0 0 0 0 0 0 
0 0 0 0 0 0 0 0 0 
0 0 0 0 0 0 0 0 0 
0 0 0 0 0 0 0 0 0 
0 0 0 0 0 0 0 0 0 
0 0 0 0 0 0 0 0 0 
0 0 0 0 0 0 0 2.807e-10 0 
0 0 0 0 0 0 0 0 0 
0 0 0 0 0 0 0 0 0 
0 0 0 0 0 0 0 0 0 
0 0 0 0 0 0 0 0 2.18982e-10 
0 0 0 0 0 0 0 0 0 
0 0 8.59014e-10 0 0 0 0 0 0 
0 0 0 0 0 0 0 0 0 
2.45898e-10 0 0 0 0 0 0 0 0 
0 6.75097e-10 0 0 0 2.08349e-11 0 0 0 
0 0 0 0 0 0 0 0 0 
5.2535e-10 0 0 0 0 3.73419e-10 0 0 0 
0 0 0 0 0 0 0 0 0 
0 0 0 0 0 0 0 0 0 
0 0 0 0 0 0 0 0 0 
0 0 0 0 0 0 0 0 0 
0 0 0 0 0 0 0 0 0 
0 0 0 0 0 0 0 0 0 
0 0 0 0 0 0 0 0 0 
0 0 0 0 0 0 0 0 0 
0 0 0 0 0 0 0 0 6.19909e-10 
0 0 0 0 0 0 0 0 0 
0 0 0 0 0 0 0 0 0 
0 0 0 0 0 0 0 0 0 
0 0 0 0 0 0 0 0 4.66159e-10 
0 0 0 0 0 0 0 0 0 
0 0 6.89713e-10 0 0 0 0 0 0 
0 0 0 0 0 0 0 0 0 
0 0 0 0 0 0 0 0 0 
1.39011e-08 0 0 0 0 0 0 0 0 
0 0 0 0 0 0 0 0 0 
0 0 0 0 0 0 0 0 0 
0 0 0 0 0 0 0 0 0 
0 0 0 0 0 0 0 0 0 
0 0 0 0 0 0 0 0 0 
0 0 0 0 0 0 0 0 0 
0 0 0 0 0 0 0 0 0 
0 0 0 0 0 0 0 0 0 
0 0 0 0 0 0 0 0 0 
0 0 0 0 0 0 0 0 0 
0 0 0 0 0 0 0 0 0 
0 0 0 0 0 0 0 0 2.0415e-10 
0 0 1.73834e-11 0 0 0 0 0 0 
1.43929e-10 0 0 0 0 0 0 0 0 
0 0 0 0 0 0 0 0 0 
0 0 0 0 0 0 0 0 0 
0 0 0 0 0 0 0 0 0 
0 0 0 0 0 0 0 0 0 
0 0 0 0 0 0 0 0 0 
1.22984e-10 0 0 0 0 0 0 0 0 
0 0 5.94959e-10 0 0 0 0 0 0 
0 0 0 0 0 0 0 0 0 
0 0 0 0 0 0 0 0 0 
0 0 0 0 0 0 0 1.06893e-09 0 
0 2.16147e-08 0 0 0 0 0 0 0 
0 0 0 0 0 0 0 0 0 
0 0 0 0 0 0 0 
feature_4 1 2500 float
0 0 0 0 0 0 0 0 0 
0 6.08349e-10 0 9.96543e-10 0 0 0 0 0 
0 0 0 0 0 0 0 0 0 
0 0 0 0 0 0 0 0 0 
0 0 0 0 0 0 0 0 0 
0 0 0 0 0 0 0 0 0 
0 0 0 0 0 0 0 0 0 
0 0 0 0 0 0 0 0 0 
0 0 0 4.43484e-10 0 0 0 0 0 
0 0 0 0 0 0 0 0 0 
0 0 0 0 0 0 0 0 0 
0 0 9.8138e-10 0 0 0 0 0 0 
0 0 0 0 0 0 0 0 0 
0 0 0 0 0 0 0 0 0 
0 0 0 0 0 0 0 0 0 
0 0 0 0 0 0 0 0 0 
0 0 0 0 0 9.29248e-10 2.06402e-10 0 0 
0 0 0 0 0 0 0 0 0 
0 0 0 0 0 0 0 0 0 
0 0 0 0 0 0 0 0 0 
0 0 0 0 0 9.28759e-11 0 0 0 
0 0 0 0 0 0 0 0 0 
0 0 0 0 0 0 0 0 0 
0 0 0 0 0 0 0 0 0 
0 0 0 0 0 0 0 0 0 
0 0 0 0 0 0 0 0 0 
0 0 0 0 0 4.44957e-10 0 0 0 
6.14218e-10 0 0 0 0 0 0 0 0 
0 0 0 0 0 0 0 0 0 
0 0 0 0 0 0 0 0 0 
0 0 0 0 0 0 0 0 0 
0 0 5.70818e-10 0 0 0 0 0 0 
0 0 0 0 0 0 0 0 0 
0 0 0 0 0 0 0 0 0 
0 0 0 0 0 0 0 0 0 
0 0 0 0 0 0 0 3.16973e-11 0 
0 0 0 0 0 0 0 0 0 
0 0 0 0 0 0 0 0 0 
0 0 0 0 0 0 0 0 0 
0 0 0 0 0 0 0 0 0 
0 0 0 0 0 0 0 0 0 
0 0 0 0 0 0 0 0 0 
0 0 0 0 0 0 0 0 0 
0 5.00052e-10 0 0 0 0 0 0 0 
0 0 0 0 0 0 0 0 0 
0 0 0 0 0 0 0 0 0 
0 0 0 0 0 0 0 0 0 
0 0 0 0 0 0 0 0 0 
0 0 0 0 0 0 0 0 0 
0 0 0 0 0 0 0 0 0 
0 0 0 0 0 0 0 0 0 
0 0 0 2.21323e-10 0 0 0 0 0 
0 0 0 0 0 0 0 2.1706e-10 0 
0 0 0 0 0 0 0 0 0 
0 0 0 0 0 0 0 0 0 
0 0 0 0 0 0 0 0 0 
0 0 0 0 0 0 0 0 0 
0 0 0 0 0 0 0 0 0 
0 0 0 0 0 0 0 0 0 
0 0 0 7.38433e-10 0 0 0 0 0 
0 0 0 0 0 0 0 0 0 
0 0 0 0 0 0 0 0 0 
0 0 0 0 0 0 2.24212e-10 0 0 
0 0 0 0 0 0 0 0 0 
0 0 0 0 0 0 0 0 0 
0 0 0 0 0 0 0 0 0 
0 0 1.01209e-09 0 0 0 0 0 0 
0 0 1.42737e-10 0 0 0 0 0 0 
0 0 0 0 0 0 0 0 0 
0 0 0 0 0 0 0 0 0 
0 0 1.74733e-10 0 0 0 0 0 0 
0 0 0 0 0 0 0 0 0 
0 0 0 0 0 0 0 0 0 
0 0 0 0 0 0 0 0 0 
0 0 0 0 0 0 0 0 0 
0 0 0 0 0 0 0 0 0 
0 0 0 0 0 0 0 0 0 
0 0 0 0 0 0 0 0 0 
0 0 0 0 0 0 0 0 0 
0 0 0 0 0 0 0 0 0 
6.95016e-10 0 0 0 0 0 0 0 0 
0 0 0 0 0 0 0 0 0 
0 0 0 0 0 0 0 0 0 
0 0 0 0 0 0 0 0 0 
0 0 0 0 0 0 0 0 0 
0 0 0 0 0 0 0 0 0 
0 0 0 0 0 0 0 0 0 
0 0 0 0 0 0 0 0 0 
0 0 0 0 0 0 0 0 0 
0 0 0 0 0 0 0 0 0 
0 0 5.46741e-10 9.54667e-10 0 0 0 0 0 
0 0 0 0 0 0 0 0 0 
0 0 0 0 0 0 0 0 0 
0 0 0 0 0 0 0 0 0 
0 0 0 0 0 0 0 0 0 
0 0 0 0 0 0 0 0 0 
0 0 0 0 0 0 0 0 0 
0 0 0 0 0 0 0 0 0 
5.68217e-10 0 0 0 0 0 0 0 8.24979e-10 
0 0 0 0 0 0 0 0 0 
0 0 0 0 0 0 6.54385e-10 0 0 
0 0 0 0 0 0 0 0 0 
0 4.45315e-10 0 0 0 0 0 0 0 
2.71189e-10 0 0 0 0 0 0 0 0 
0 0 0 0 0 0 0 0 0 
0 0 0 0 0 0 0 0 0 
0 0 0 0 0 0 0 0 0 
0 0 3.71614e-10 0 0 0 0 0 0 
0 0 0 0 0 0 0 0 0 
0 0 0 0 0 0 0 0 0 
0 0 0 0 0 0 0 0 0 
0 0 0 0 0 0 0 0 0 
0 0 0 0 0 0 0 0 0 
0 0 0 0 0 0 0 0 0 
0 0 0 0 0 0 0 0 0 
0 0 0 0 0 0 0 0 0 
0 0 0 0 0 0 0 0 0 
0 0 0 0 0 0 0 0 0 
0 0 0 0 0 0 0 0 0 
0 0 0 0 0 0 0 0 0 
0 0 0 0 0 0 0 0 0 
0 0 0 0 0 0 0 3.04169e-10 0 
0 0 0 0 0 0 0 0 0 
0 0 0 0 0 0 0 0 0 
0 0 0 0 0 0 0 0 0 
0 0 0 0 7.83354e-10 0 0 0 0 
0 0 0 0 0 0 0 0 0 
0 0 0 0 0 0 0 0 0 
0 0 0 0 0 0 0 0 0 
0 0 0 0 0 0 0 0 0 
0 0 0 0 0 0 0 0 0 
0 0 0 0 0 0 0 0 0 
0 0 0 4.55028e-10 0 0 0 0 0 
0 0 0 0 0 0 0 0 0 
0 0 0 0 0 0 0 0 0 
0 0 0 0 0 0 0 7.91118e-11 0 
0 0 0 0 0 0 0 0 0 
0 0 0 0 0 0 0 0 0 
0 0 0 0 0 0 0 0 0 
0 0 0 0 0 0 0 0 0 
0 5.13317e-10 0 0 0 1.12732e-10 0 0 0 
0 0 0 0 0 0 0 0 0 
0 0 0 0 0 0 0 0 0 
0 6.93348e-10 0 0 0 0 0 6.90093e-10 0 
0 0 0 0 0 0 0 0 0 
0 0 0 0 0 0 0 0 0 
0 0 0 0 0 0 0 0 0 
0 0 0 0 0 0 2.43151e-10 0 0 
0 0 0 0 0 0 0 0 0 
0 0 0 0 0 0 0 0 5.21958e-10 
0 0 0 0 0 0 0 0 0 
0 0 0 7.59584e-10 0 0 0 0 0 
0 0 0 0 0 0 0 0 0 
0 0 0 0 0 0 0 0 0 
0 0 0 0 0 0 0 0 0 
0 0 0 0 0 0 0 0 0 
0 0 0 0 0 0 0 0 0 
0 0 0 0 0 0 1.72107e-10 0 0 
0 0 0 0 0 0 0 0 0 
0 0 0 0 0 0 0 0 0 
0 0 0 0 0 0 0 0 0 
0 0 0 0 0 0 0 0 0 
0 2.96986e-10 0 0 0 0 0 0 0 
0 0 0 0 0 0 0 0 0 
0 0 0 0 0 0 0 0 0 
0 0 0 0 0 0 0 0 0 
0 0 0 0 0 0 0 0 0 
0 0 0 0 0 0 0 0 0 
0 0 0 0 0 0 0 0 0 
0 0 0 0 0 0 0 0 4.27093e-10 
0 0 0 0 0 0 0 0 0 
0 0 0 0 0 0 2.52403e-11 0 0 
0 0 0 0 0 0 0 0 0 
0 0 0 0 0 0 0 0 0 
0 0 0 0 0 0 0 0 0 
0 7.32307e-10 0 0 0 0 0 0 0 
0 0 0 0 0 0 0 4.33461e-10 0 
0 0 0 0 0 0 0 0 0 
0 0 0 0 0 0 0 0 0 
0 0 0 0 0 0 0 0 0 
0 9.41583e-10 0 0 0 0 0 0 0 
0 0 0 0 0 0 0 0 0 
0 0 0 0 0 0 0 0 0 
0 0 0 0 0 0 0 0 0 
0 0 0 0 0 0 0 0 0 
0 0 0 0 0 0 0 0 0 
0 0 0 0 0 0 0 0 0 
0 0 0 0 0 0 0 0 0 
0 0 0 0 0 0 0 0 0 
0 0 0 0 0 0 0 0 0 
0 0 0 0 0 0 0 0 0 
0 0 0 0 0 0 0 0 0 
0 0 0 0 0 0 0 0 0 
0 0 0 0 0 0 0 0 0 
0 0 0 0 0 0 0 0 0 
0 0 0 0 0 0 0 0 0 
0 0 0 0 0 0 0 2.02984e-11 0 
0 0 0 0 0 0 0 0 0 
0 0 0 0 0 0 0 0 0 
0 0 0 0 0 0 0 0 0 
0 0 0 0 0 0 0 0 0 
0 0 0 0 0 0 0 0 0 
2.95923e-10 0 0 0 0 0 0 0 0 
0 0 0 0 0 0 0 0 0 
0 0 5.2183e-10 0 0 0 0 0 0 
0 0 0 0 0 0 0 0 0 
0 0 0 0 0 0 0 0 0 
0 0 0 0 0 0 0 0 0 
0 0 0 0 0 0 0 0 0 
2.42473e-11 0 6.73284e-12 2.58712e-10 0 0 0 0 0 
0 0 0 0 0 0 0 0 0 
0 0 0 0 0 0 0 0 0 
0 0 0 5.74801e-10 0 0 0 0 0 
0 0 0 0 0 0 8.07312e-10 0 0 
0 0 0 0 0 0 0 0 0 
0 0 0 0 0 0 0 0 0 
0 0 0 0 0 0 0 0 0 
0 0 0 0 0 0 0 0 0 
0 0 0 0 0 0 0 0 0 
0 0 0 0 0 0 0 0 0 
0 0 0 0 0 0 0 0 0 
0 0 0 0 0 0 0 0 0 
0 0 0 0 0 0 0 0 0 
0 0 0 0 0 0 0 0 0 
0 0 4.16396e-10 0 0 0 0 0 0 
0 0 0 0 0 0 0 0 0 
0 0 0 0 0 0 0 0 0 
0 0 0 0 0 0 0 0 0 
6.92602e-10 0 0 0 0 0 0 8.03347e-10 0 
0 0 0 0 0 0 0 0 0 
0 0 0 0 0 0 0 0 0 
0 0 0 0 9.14149e-11 0 0 0 0 
0 0 0 0 0 0 0 0 0 
0 0 0 0 0 0 0 0 0 
0 0 0 0 0 0 0 0 0 
0 0 0 1.61823e-10 0 0 0 0 0 
0 0 0 5.84528e-11 0 0 0 0 0 
0 0 0 0 0 0 0 0 0 
0 0 0 0 0 0 0 0 0 
0 0 0 0 0 0 0 4.84331e-10 0 
0 0 0 2.18964e-10 0 0 0 0 0 
0 0 0 0 0 2.76774e-10 0 0 0 
0 0 0 0 0 0 0 0 0 
0 0 0 0 0 0 0 2.58574e-10 0 
0 0 0 0 0 0 0 0 0 
0 0 0 0 0 0 0 0 0 
0 0 3.2837e-10 0 0 0 0 0 0 
0 0 0 0 0 0 0 0 0 
0 0 0 0 0 0 0 0 0 
0 0 0 0 0 0 0 0 0 
0 0 0 0 0 0 0 0 0 
0 0 0 0 0 0 6.57163e-10 0 0 
0 0 0 0 0 0 0 0 0 
0 0 0 0 0 0 0 0 0 
0 0 0 0 0 0 0 0 0 
0 0 0 0 0 0 0 0 0 
0 0 0 0 0 0 0 0 0 
0 0 0 0 0 0 0 0 0 
0 0 0 0 0 0 0 0 0 
0 0 0 0 0 0 0 0 0 
0 0 0 0 0 0 0 0 0 
0 0 0 0 0 0 0 0 0 
0 0 2.79272e-10 0 0 0 0 0 0 
0 0 0 0 0 0 0 0 0 
0 0 0 0 0 0 0 0 0 
0 0 3.02973e-10 0 0 0 0 0 0 
0 0 0 0 0 0 0 0 0 
0 0 0 0 0 0 6.48868e-11 0 0 
0 0 0 0 0 0 0 0 0 
0 0 0 0 0 0 0 0 0 
0 0 0 0 0 0 0 0 0 
0 0 0 0 0 0 0 0 0 
0 0 0 0 0 0 0 0 0 
0 0 0 0 0 0 0 0 0 
0 0 0 0 0 0 0 0 0 
0 0 0 0 0 0 0 0 0 
0 0 0 0 0 0 0 0 0 
0 0 0 0 0 0 0 
feature_5 1 2500 float
0 0 0 0 0 0 0 0 0 
0 0 0 0 0 0 0 0 0 
0 0 0 0 0 0 0 0 0 
0 0 0 0 0 0 4.49123e-10 0 0 
0 0 0 0 0 0 0 0 0 
0 0 0 0 0 0 0 0 0 
0 7.1941e-10 0 0 0 0 0 0 0 
0 0 0 0 0 0 0 0 0 
0 0 0 0 0 0 0 0 0 
0 0 0 0 0 0 0 6.05027e-10 0 
0 0 1.08436e-10 0 0 0 0 0 0 
3.24051e-08 0 0 0 0 0 0 0 0 
0 0 1.46656e-11 0 4.28583e-10 0 0 0 0 
0 0 0 0 0 0 0 0 0 
0 0 0 0 0 0 0 0 0 
0 0 0 0 0 0 0 0 0 
0 0 0 0 0 0 0 0 0 
0 0 0 0 0 0 0 0 0 
0 0 0 0 0 0 0 0 0 
0 0 0 0 0 0 0 0 0 
0 0 0 0 0 0 3.34133e-10 0 0 
0 0 0 3.00402e-08 0 0 0 0 2.49939e-08 
0 0 4.60084e-10 1.79561e-10 0 0 0 0 0 
0 0 0 0 0 0 0 0 0 
0 0 1.39399e-08 0 0 0 0 0 0 
0 0 0 0 0 0 0 0 7.74197e-10 
0 0 0 0 0 0 0 0 0 
0 0 1.52227e-08 0 0 0 0 0 0 
0 0 0 0 0 0 0 1.06935e-09 0 
0 0 0 0 0 0 0 0 0 
0 0 0 0 0 0 0 0 0 
0 0 0 0 0 0 0 2.41435e-10 0 
0 0 0 0 8.7649e-11 0 0 0 0 
0 0 0 0 0 0 0 0 0 
0 0 0 0 0 0 0 0 0 
0 0 0 0 0 0 0 0 0 
0 0 0 0 0 0 0 0 0 
0 0 0 0 0 0 0 1.41346e-08 0 
0 0 0 0 0 0 0 0 0 
0 0 0 0 0 0 0 0 0 
0 2.08875e-10 0 0 0 0 0 0 0 
6.67779e-10 0 0 0 0 0 0 0 0 
0 0 0 0 0 0 0 0 0 
0 0 0 0 0 0 0 0 0 
0 0 0 0 0 0 1.91391e-08 0 0 
0 0 0 1.2669e-07 0 0 0 0 4.35142e-09 
0 0 0 0 0 1.69731e-10 0 0 0 
0 0 0 0 0 0 0 0 3.32285e-10 
0 0 0 0 0 0 0 0 0 
0 0 0 0 0 0 0 0 0 
0 0 0 0 0 0 0 0 0 
0 0 0 0 1.06756e-09 0 0 0 0 
0 0 0 0 0 0 0 0 0 
0 0 0 0 0 0 0 0 0 
0 0 0 0 0 0 0 0 0 
6.63153e-10 0 0 7.85139e-10 0 0 0 0 0 
2.28763e-08 0 0 0 0 0 0 0 0 
0 0 0 0 0 0 0 5.16746e-10 0 
0 4.13021e-10 0 0 0 0 0 0 0 
0 3.52284e-10 0 0 0 0 0 8.30703e-10 0 
0 0 0 0 0 0 0 1.75586e-08 0 
0 0 0 0 0 7.77437e-10 0 0 0 
0 0 0 0 0 0 0 0 0 
0 0 0 0 0 0 0 0 0 
0 0 0 0 0 0 0 0 0 
0 0 0 0 0 0 0 0 0 
0 0 0 0 0 0 0 0 0 
0 0 0 0 0 0 0 0 0 
0 0 0 0 0 0 0 0 0 
0 0 0 0 0 0 0 0 0 
0 0 0 0 0 0 0 0 0 
0 0 0 0 0 0 1.25937e-10 0 0 
0 0 0 0 0 0 0 0 0 
0 0 0 0 3.37081e-11 0 0 0 0 
0 0 0 3.98348e-10 0 0 2.4032e-10 0 0 
0 0 0 0 0 0 0 0 0 
0 0 0 0 0 0 0 0 0 
0 0 0 0 0 0 0 0 0 
2.45007e-08 0 0 0 0 0 0 0 0 
0 0 0 0 0 0 0 0 0 
3.74566e-10 0 0 0 0 0 0 0 0 
0 0 2.74127e-10 0 0 0 0 0 0 
0 0 0 0 0 0 2.58057e-08 0 0 
0 0 0 0 0 0 0 0 0 
0 0 0 0 0 0 0 8.7679e-07 3.92564e-07 
0 0 0 0 0 0 0 0 0 
0 0 0 0 0 0 0 0 0 
0 0 0 0 0 0 0 0 0 
0 0 0 0 0 0 0 0 0 
0 0 0 0 0 0 0 0 0 
0 0 0 0 0 0 0 0 0 
0 0 0 0 0 0 0 0 4.71069e-10 
0 0 0 0 0 0 0 0 0 
0 0 0 0 0 0 0 0 0 
0 0 0 0 0 0 0 0 0 
0 0 0 3.78307e-10 6.25828e-10 0 0 0 0 
0 0 0 0 0 0 0 0 0 
0 0 0 0 0 0 0 0 0 
0 0 0 0 0 0 0 0 0 
0 0 0 0 0 0 0 0 0 
0 0 0 0 0 1.16469e-10 0 0 0 
1.20259e-10 0 0 0 0 0 0 0 6.79698e-10 
0 0 0 0 0 0 0 0 0 
0 0 0 0 0 0 5.96096e-10 0 0 
0 0 0 0 0 0 0 3.08654e-08 0 
0 0 0 0 0 0 0 0 0 
0 1.27067e-08 0 0 0 0 0 0 0 
0 0 0 0 0 0 0 0 0 
0 0 0 1.46766e-08 0 0 0 0 0 
0 0 0 0 0 0 0 0 0 
0 0 0 0 0 0 0 0 0 
0 0 0 0 0 0 0 0 0 
0 0 0 0 9.55797e-10 0 0 0 0 
0 6.91454e-10 0 0 0 0 0 0 0 
0 0 0 0 0 0 0 0 0 
0 0 0 0 0 0 0 0 7.96046e-10 
0 2.74833e-08 0 0 0 0 0 0 0 
0 0 0 0 0 0 0 0 0 
0 0 0 0 0 0 0 0 0 
0 0 0 0 0 0 0 0 0 
0 0 0 0 0 0 0 0 0 
0 0 4.5889e-10 0 0 0 0 0 0 
0 0 0 0 0 0 0 0 0 
0 0 0 0 0 0 0 0 0 
0 0 0 0 7.14284e-10 0 0 0 0 
0 0 0 0 0 0 0 0 0 
0 0 0 0 0 0 0 2.54492e-10 0 
0 0 0 0 0 0 0 0 0 
0 0 0 0 0 0 0 0 0 
5.40854e-10 0 0 0 0 0 0 0 0 
0 0 0 0 0 0 0 0 0 
0 0 0 0 0 6.15131e-10 0 0 0 
0 0 0 0 0 0 0 0 0 
0 0 0 0 0 0 0 0 0 
0 0 0 0 0 0 0 0 0 
0 0 0 0 0 0 0 0 0 
0 0 0 0 0 0 0 0 0 
0 0 0 0 0 0 0 0 0 
0 0 0 0 0 0 0 0 0 
0 0 0 0 0 0 0 0 0 
0 0 0 0 6.00281e-10 0 0 0 0 
0 0 0 0 0 0 0 0 0 
5.38442e-10 0 0 0 0 0 0 0 0 
0 0 1.05992e-08 0 0 0 0 0 0 
0 0 0 0 0 0 0 0 0 
0 0 0 0 0 0 0 0 0 
0 4.08159e-08 0 0 0 0 0 0 0 
0 0 0 0 0 0 0 0 0 
0 0 0 0 0 0 0 0 0 
0 0 0 0 0 0 0 0 0 
0 0 0 4.11347e-10 0 0 0 0 0 
0 0 0 0 0 0 0 0 0 
0 0 0 0 0 0 0 0 0 
0 0 0 0 0 0 0 0 0 
0 0 0 0 0 0 0 0 2.33639e-08 
1.03303e-09 0 0 5.82224e-10 0 0 4.67368e-10 0 0 