# vtk DataFile Version 5.1
vtk output
ASCII
DATASET STRUCTURED_POINTS
DIMENSIONS 50 50 1
SPACING 1 1 1
ORIGIN 0 0 0
POINT_DATA 2500
FIELD FieldData 6
feature_1 1 2500 float
0 0 0 0 1.26444e-09 7.07665e-11 0 0 0 
0 0 0 0 0 0 0 0 0 
0 0 0 0 0 0 1.24329e-09 0 0 
0 0 0 0 0 0 0 0 0 
0 0 0 0 0 0 0 0 3.9411e-10 
0 0 0 0 0 0 0 0 0 
0 0 1.00246e-09 0 2.09321e-10 0 0 0 0 
0 0 0 0 0 0 8.18794e-11 0 0 
0 0 0 0 0 0 0 0 0 
0 0 0 0 0 0 0 0 0 
2.87246e-10 0 0 9.85452e-10 0 0 0 1.10742e-09 9.46621e-10 
0 7.72324e-11 0 0 0 0 0 0 0 
0 0 0 0 0 0 0 0 0 
0 0 0 0 0 0 0 0 0 
0 5.49991e-11 0 0 0 0 0 0 0 
0 0 0 0 0 0 0 0 0 
0 7.17103e-10 0 0 0 0 0 0 0 
0 0 8.86899e-10 0 0 0 0 0 0 
0 0 0 0 0 0 0 0 0 
0 0 0 0 0 0 0 0 0 
0 0 0 0 0 0 0 0 0 
0 0 0 0 0 0 0 0 0 
0 0 0 0 0 0 0 0 0 
0 0 0 0 0 0 0 0 0 
0 0 0 0 1.78533e-10 0 0 6.34227e-10 6e-10 
0 0 0 0 0 0 0 0 0 
0 0 0 0 0 0 0 0 0 
0 0 0 0 0 0 0 0 6.85272e-10 
0 0 0 0 0 0 0 0 0 
0 0 0 0 0 0 0 0 0 
0 0 0 0 0 0 0 0 0 
0 0 0 8.31015e-10 0 0 0 0 0 
0 0 0 0 0 0 0 0 0 
0 0 0 0 0 0 0 0 0 
0 9.93531e-10 0 0 0 0 0 0 0 
0 0 0 4.20158e-10 0 0 0 0 0 
0 0 0 0 0 0 0 0 0 
0 0 0 0 0 2.13815e-10 0 0 0 
0 0 0 0 0 0 0 0 0 
0 0 0 0 0 0 0 1.02882e-09 0 
0 0 0 1.42943e-10 0 0 0 0 2.68412e-08 
1.07617e-09 0 0 0 0 0 0 0 6.77237e-06 
5.08818e-08 0 0 0 0 0 0 0 0 
0 0 0 0 0 0 0 0 0 
0 0 0 0 0 0 0 0 0 
0 0 0 6.78036e-06 0 0 0 0 0 
0 0 0 0 6.79184e-06 0 0 0 0 
0 0 0 0 0 0 0 0 0 
0 6.48019e-10 0 0 0 0 0 0 0 
0 0 0 0 0 0 0 0 0 
0 8.09131e-11 0 0 0 0 0 0 2.4572e-10 
0 0 0 0 0 0 0 0 2.94662e-08 
0 0 0 0 0 0 0 0 0 
0 0 2.52966e-09 0 0 0 0 0 0 
0 0 0 0 0 0 0 0 0 
0 0 0 0 0 0 0 0 0 
4.99597e-10 0 0 0 0 0 0 0 0 
0 0 0 7.18711e-06 0 6.26713e-10 0 0 0 
0 0 0 0 0 0 0 0 0 
0 0 3.09376e-08 0 1.22847e-09 0 0 0 0 
6.87262e-06 0 0 0 0 8.60179e-10 0 0 0 
0 0 0 0 8.00853e-10 0 0 0 0 
0 0 7.19096e-06 0 0 7.02464e-06 0 7.35829e-06 8.57341e-10 
0 0 0 5.05e-10 0 0 0 0 0 
0 0 0 0 0 0 8.09847e-06 8.39577e-06 0 
0 3.80364e-08 6.8884e-06 0 0 3.31513e-08 0 0 0 
0 0 0 0 0 0 0 0 0 
0 0 0 0 0 6.09688e-08 7.1686e-06 0 0 
0 0 0 0 0 0 0 0 0 
0 0 0 0 5.31223e-10 0 0 0 0 
0 1.64447e-09 0 0 7.2542e-06 0 0 3.49796e-08 0 
6.93549e-06 0 0 0 0 0 0 0 0 
0 0 0 8.18872e-10 0 0 0 0 0 
0 1.54333e-08 0 0 0 0 0 0 0 
0 0 0 0 0 0 0 0 6.8043e-06 
0 0 6.81077e-06 0 0 0 0 0 0 
0 9.38915e-10 0 0 0 0 0 0 0 
0 0 1.09256e-09 0 0 0 0 0 0 
0 0 0 0 0 5.21879e-10 0 0 0 
0 0 0 0 0 0 0 0 0 
0 1.98435e-10 0 0 2.22915e-08 0 0 5.35327e-08 0 
0 0 0 0 0 0 0 0 0 
0 0 0 0 0 0 0 0 0 
0 0 0 0 0 0 0 0 0 
0 0 4.76138e-10 0 0 6.91615e-06 0 2.59426e-07 7.38913e-06 
0 0 0 0 0 0 0 0 0 
0 0 0 0 0 0 0 6.86996e-06 6.59953e-08 
0 0 0 0 0 0 0 0 0 
0 0 0 0 0 0 0 0 1.6087e-09 
0 0 0 0 0 0 0 0 0 
0 4.71799e-08 0 7.64023e-06 0 0 0 0 0 
7.48091e-10 1.6699e-08 6.79947e-06 3.1653e-08 0 0 0 5.58664e-10 0 
0 0 0 0 5.76809e-08 0 0 0 0 
0 0 0 0 0 0 0 0 0 
0 0 0 0 0 0 0 0 0 
0 0 0 5.10473e-10 1.00897e-12 0 0 0 0 
7.45451e-06 0 0 7.04853e-09 0 1.65525e-09 0 0 0 
0 0 2.21227e-08 0 0 0 8.57771e-09 0 0 
0 0 0 0 6.12372e-07 0 0 0 0 
6.71104e-10 0 2.43759e-10 4.5269e-10 0 0 0 8.67566e-10 0 
6.60904e-10 0 0 1.40425e-09 0 0 0 0 0 
0 0 6.83925e-06 0 0 0 3.89664e-08 0 0 
0 2.83258e-11 0 0 0 0 0 0 6.97832e-06 
0 0 0 0 0 8.10868e-06 0 0 7.50104e-06 
0 7.56056e-06 0 0 0 0 8.10168e-10 0 0 
0 0 0 0 0 0 0 0 0 
0 0 0 0 0 0 0 0 0 
0 0 7.07942e-06 0 7.22915e-06 7.38013e-08 8.60323e-06 9.30531e-06 0 
0 0 0 4.92437e-08 0 0 0 0 0 
0 5.64518e-08 0 0 0 7.99594e-06 0 0 0 
0 0 0 0 0 0 0 0 0 
0 0 0 8.66248e-10 0 0 0 0 0 
0 0 0 0 0 0 0 0 0 
0 0 0 8.41409e-06 4.26378e-08 1.25234e-09 0 0 0 
0 0 0 0 0 0 0 0 7.41795e-06 
0 0 7.43933e-06 0 0 0 0 0 0 
0 0 0 0 0 0 0 0 0 
0 0 0 0 0 0 0 0 0 
0 0 0 0 0 0 0 0 3.11204e-08 
0 0 0 0 0 0 0 0 0 
0 7.09008e-06 0 7.53798e-06 0 0 0 2.95442e-08 0 
0 0 0 0 0 0 0 0 0 
0 0 0 0 0 0 0 0 2.51403e-08 
8.01401e-06 8.01974e-06 0 0 0 0 0 6.78876e-06 0 
0 0 0 0 1.98299e-08 0 0 0 0 
0 0 0 0 0 0 0 0 7.01564e-08 
0 0 0 0 0 0 0 0 0 
0 0 0 0 0 0 0 0 0 
0 0 0 0 1.63369e-08 0 0 0 0 
0 0 0 4.40835e-08 0 0 3.22364e-08 6.86384e-06 0 
0 0 0 0 0 0 7.18356e-06 0 0 
0 0 0 7.13946e-06 0 7.12177e-06 0 0 6.83539e-06 
2.73587e-08 0 0 0 1.037e-09 0 0 0 0 
0 0 0 0 0 0 0 0 0 
0 0 1.94067e-10 0 0 0 0 0 0 
0 0 0 0 0 0 0 0 0 
0 0 0 7.20047e-06 0 0 0 0 0 
0 1.40123e-08 0 0 0 0 0 0 0 
0 0 0 0 0 0 0 0 0 
0 0 0 0 0 0 0 0 0 
0 0 0 0 0 0 0 0 0 
6.95432e-06 0 0 0 0 8.21174e-06 0 0 0 
0 0 0 0 0 0 0 1.05341e-08 0 
0 0 0 0 0 0 4.11672e-10 0 0 
0 0 0 0 0 0 0 0 0 
0 0 0 0 0 0 0 0 0 
0 0 0 0 1.14165e-09 0 0 2.19353e-08 7.53114e-06 
3.14685e-06 8.61487e-06 0 0 0 0 0 0 0 
0 7.31351e-10 0 0 0 0 0 0 0 
3.27897e-08 0 0 0 0 0 0 0 0 
0 0 0 0 0 0 0 0 0 
0 0 0 0 0 0 0 0 0 
0 0 6.97189e-06 0 0 7.64564e-06 0 0 0 
6.908e-06 0 0 0 1.88324e-08 0 0 0 0 
0 0 0 0 6.76959e-06 3.3131e-08 0 0 0 
0 0 0 2.36794e-10 0 0 0 0 0 
0 0 0 0 0 0 0 0 6.7394e-08 
0 0 0 0 0 0 0 0 0 
0 0 0 0 0 0 0 7.05585e-06 0 
6.70355e-06 0 0 0 6.79717e-06 0 7.4273e-10 0 0 
0 0 0 0 0 0 0 0 0 
0 0 0 0 0 0 0 0 0 
6.88079e-06 0 0 0 6.87682e-06 0 0 0 0 
0 0 0 0 0 0 0 0 0 
0 0 0 2.54621e-08 0 0 0 0 0 
0 0 8.91827e-10 2.95941e-11 0 0 0 0 0 
0 0 0 0 0 0 0 0 0 
0 0 0 0 0 0 0 8.17857e-06 0 
0 0 0 3.7278e-09 0 0 0 0 0 
0 0 0 0 0 0 0 0 0 
0 0 2.90873e-08 6.81545e-06 1.36295e-08 0 0 0 0 
0 0 0 0 0 0 0 0 0 
0 0 0 0 0 0 0 0 0 
0 0 0 8.05723e-06 0 0 0 0 0 
0 0 0 6.79454e-06 1.20782e-09 0 0 0 0 
0 0 0 0 0 0 0 0 0 
0 0 0 0 0 0 0 0 0 
0 0 0 0 0 0 0 0 0 
0 0 0 0 0 0 0 0 0 
0 6.8593e-10 0 0 0 0 0 1.42594e-09 0 
0 0 1.0201e-09 0 0 0 0 0 0 
4.85543e-08 0 0 0 0 0 0 0 1.41211e-09 
7.233e-06 0 0 0 0 0 0 0 0 
0 0 1.13943e-09 0 0 0 0 0 0 
0 0 0 0 0 0 0 6.78293e-06 6.00053e-10 
1.16211e-08 0 2.85022e-10 0 0 0 0 0 0 
0 0 0 0 3.14863e-08 6.78043e-06 4.3243e-08 0 0 
0 0 0 0 7.18634e-06 0 1.05217e-07 6.88716e-06 0 
0 0 0 0 0 0 0 0 0 
0 0 0 0 0 0 0 0 0 
0 0 0 0 0 0 0 4.00645e-08 6.88304e-06 
4.02909e-08 0 0 0 0 0 3.67481e-08 0 0 
0 0 0 0 0 0 0 4.23324e-11 0 
0 0 1.64767e-08 0 0 0 0 0 0 
0 0 0 0 0 0 0 0 0 
5.38673e-10 0 0 6.77721e-06 0 0 0 0 0 
0 0 0 0 0 0 0 0 0 
0 0 6.96499e-06 4.61324e-08 0 0 0 0 0 
0 1.57921e-09 0 0 0 0 0 0 0 
0 0 0 0 0 0 0 0 0 
0 0 0 0 0 0 0 0 0 
0 0 0 0 0 3.59709e-10 0 8.03116e-06 3.63498e-10 
0 3.17339e-10 3.65933e-10 0 8.02709e-06 8.10396e-06 0 0 0 
6.98901e-06 0 0 0 0 0 0 0 0 
0 0 0 0 0 0 0 0 0 
0 0 0 0 0 0 0 0 0 
0 0 7.46724e-10 0 0 0 3.41746e-10 0 0 
7.62977e-10 0 0 0 0 0 0 5.47825e-10 0 
0 0 0 0 3.8394e-08 0 1.03161e-09 0 0 
0 0 0 0 1.10238e-09 1.34896e-09 0 0 0 
0 0 0 0 0 0 0 0 0 
0 0 0 0 0 0 0 0 0 
0 0 1.77013e-08 0 0 0 3.2787e-10 0 0 
0 0 0 0 0 0 0 0 0 
8.44037e-06 0 8.31738e-08 7.21719e-06 0 0 0 0 0 
0 0 0 8.91099e-10 0 0 0 0 0 
0 0 0 0 0 0 0 0 0 
0 0 0 0 0 2.22893e-08 6.80308e-06 0 0 
7.002e-06 0 0 0 0 0 0 0 0 
0 1.29607e-09 0 0 5.68232e-10 8.84689e-06 0 7.48913e-06 0 
0 0 0 0 5.96604e-10 0 0 0 1.11729e-08 
2.7476e-08 0 0 0 1.50712e-08 0 0 0 0 
0 0 2.30168e-10 0 0 3.98934e-10 0 0 1.09105e-09 
0 0 0 0 0 5.48643e-08 0 0 0 
0 0 0 1.36325e-10 0 0 0 6.84173e-06 0 
0 0 0 0 0 0 0 0 0 
0 8.17724e-06 0 0 0 6.9111e-06 0 0 6.88236e-06 
8.10047e-10 0 0 0 5.43828e-10 5.7808e-10 0 1.01644e-09 0 
0 0 0 0 1.3715e-09 1.23702e-09 0 0 0 
2.82149e-08 6.97871e-06 0 0 0 0 0 0 0 
0 0 0 0 0 0 0 0 0 
3.54185e-08 0 0 0 7.05581e-06 0 8.42119e-06 0 7.14813e-06 
0 0 0 0 0 0 0 0 0 
0 0 0 0 0 0 0 0 0 
0 0 0 0 0 0 0 0 0 
0 0 0 0 0 8.3422e-10 0 0 0 
0 0 0 0 0 6.79283e-06 2.37173e-08 0 0 
6.27461e-08 0 4.29137e-08 0 0 0 0 3.11953e-08 6.87218e-06 
0 0 0 0 0 0 7.43196e-10 0 0 
0 0 0 0 0 0 0 0 0 
0 0 0 0 0 0 0 0 0 
0 0 0 0 7.06812e-10 0 0 0 0 
0 0 0 0 0 0 0 0 0 
0 0 0 0 0 0 0 0 0 
0 0 0 0 0 0 0 0 0 
0 0 0 0 0 0 0 0 0 
0 0 0 0 0 0 0 0 0 
0 0 0 0 0 0 1.94873e-08 0 0 
0 6.38499e-10 0 0 0 0 0 0 0 
0 0 0 0 0 0 0 0 0 
0 0 0 0 0 0 0 1.153e-09 0 
0 0 0 0 0 0 0 0 0 
0 0 0 0 0 0 0 0 0 
0 0 0 0 0 0 0 0 0 
0 0 0 0 0 7.24619e-09 0 7.59876e-10 0 
0 0 0 0 0 0 0 0 0 
0 0 0 0 0 0 0 0 0 
0 0 0 0 0 0 0 0 0 
0 0 0 0 0 0 0 0 0 
0 0 0 0 0 0 0 0 0 
0 0 0 1.13276e-09 0 0 0 0 0 
0 0 0 0 0 0 0 0 0 
0 0 0 0 0 0 0 0 0 
0 0 0 0 0 0 0 0 0 
0 0 0 0 0 0 1.00378e-09 0 1.23821e-09 
0 0 0 0 0 0 0 0 0 
0 0 0 0 0 0 0 0 0 
0 0 0 0 0 1.07825e-10 0 0 0 
0 3.49484e-10 0 0 0 0 0 4.18348e-10 0 
0 0 0 5.32303e-11 0 0 0 0 0 
0 0 0 0 0 0 0 0 0 
0 0 0 0 0 0 0 0 0 
0 0 0 0 0 0 0 0 0 
0 0 0 0 0 9.92394e-10 0 0 0 
0 0 0 0 0 0 0 0 3.77407e-10 
0 0 0 0 0 0 0 0 0 
0 0 0 0 0 0 0 0 0 
0 0 0 0 0 0 0 
feature_2 1 2500 float
0 0 0 0 0 0 0 0 0 
0 0 0 0 0 0 0 0 0 
0 0 0 0 0 0 0 0 0 
0 0 0 0 0 0 0 0 0 
0 0 0 0 0 0 0 0 0 
0 0 0 9.98739e-10 0 0 0 0 0 
0 0 0 0 0 9.91331e-10 3.58215e-10 0 0 
0 0 0 0 0 0 0 0 0 
0 0 0 0 0 0 0 0 0 
0 0 0 0 0 0 5.55161e-10 0 0 
0 0 0 0 0 0 0 0 0 
2.72396e-08 0 0 0 0 0 0 0 0 
0 0 0 0 0 0 0 0 0 
0 0 0 0 0 0 0 0 0 
0 0 0 0 0 0 0 0 0 
7.86937e-10 0 0 0 0 0 0 0 0 
0 0 0 0 0 0 0 0 0 
0 0 0 0 0 0 0 0 0 
0 0 0 0 0 0 0 0 0 
0 0 0 0 0 0 0 0 0 
0 0 0 0 0 0 0 0 0 
0 5.7528e-10 0 0 0 0 0 5.69472e-10 0 
0 0 0 0 0 0 0 0 0 
0 0 0 4.64152e-10 0 0 0 0 0 
0 0 0 0 0 0 0 0 0 
0 0 9.74101e-10 4.54273e-10 0 0 0 0 0 
0 1.20322e-09 0 0 0 0 0 0 0 
0 0 1.43129e-08 0 0 0 0 0 0 
0 0 0 0 0 0 0 0 0 
0 0 0 0 9.52419e-10 0 0 0 0 
0 0 0 0 0 0 0 0 0 
0 0 7.91598e-10 0 0 2.54319e-10 0 0 0 
0 0 0 0 0 0 0 0 0 
0 0 0 0 0 0 0 0 0 
0 0 0 0 0 0 0 0 0 
0 0 0 0 0 0 0 9.66153e-10 0 
0 0 0 0 0 0 0 0 0 
0 0 1.0659e-08 0 0 0 0 0 0 
0 0 0 0 0 0 0 0 0 
0 0 0 0 0 0 0 2.11784e-10 0 
0 0 0 0 0 0 0 0 0 
0 0 0 0 0 0 0 0 0 
0 0 0 0 0 2.06516e-10 0 0 0 
0 0 0 0 0 0 7.1514e-10 4.08561e-10 0 
0 0 0 0 0 0 1.79466e-08 0 0 
0 0 0 9.45851e-08 0 0 3.10145e-10 0 0 
0 0 0 0 0 0 0 0 0 
0 0 0 0 0 0 0 0 0 
0 0 0 0 0 0 0 0 0 
0 0 0 0 0 0 0 0 0 
0 0 0 0 0 0 0 0 0 
0 0 0 0 0 0 0 0 0 
0 0 0 0 0 0 0 0 0 
0 0 0 0 0 0 0 0 0 
0 0 0 0 0 0 0 0 0 
0 0 9.02798e-10 0 0 0 0 0 0 
0 0 0 0 0 0 0 0 0 
0 0 0 0 0 0 0 1.18531e-09 0 
0 0 0 0 0 0 0 0 0 
0 0 0 0 0 0 0 0 0 
0 0 0 0 0 0 0 0 0 
0 0 0 0 0 0 0 0 0 
1.05045e-09 0 0 0 0 0 0 0 0 
0 0 0 0 0 0 0 0 0 
0 0 0 0 0 0 0 0 0 
0 0 1.20325e-09 0 0 0 0 0 0 
0 0 0 0 0 0 0 0 0 
0 0 0 0 0 0 0 1.05451e-10 2.91724e-10 
0 0 0 0 0 0 0 0 0 
0 0 0 0 0 0 0 0 0 
0 0 0 0 0 0 0 0 0 
0 0 0 0 0 0 0 0 0 
0 0 0 0 0 0 0 0 0 
0 0 0 0 0 0 0 4.69097e-10 0 
0 5.89342e-10 0 0 0 7.962e-10 0 0 0 
0 0 8.99075e-10 0 0 0 0 0 0 
0 0 0 0 0 0 0 0 0 
0 0 0 9.74492e-10 0 0 0 0 0 
0 0 0 0 0 0 2.01919e-09 0 6.04132e-10 
0 0 0 0 0 0 0 0 0 
0 0 4.55508e-10 0 0 0 0 0 0 
0 0 0 0 0 0 0 0 6.62473e-10 
0 0 0 0 0 0 0 0 0 
0 0 0 0 0 0 0 0 0 
6.69722e-10 0 0 0 0 0 0 6.82021e-07 3.23619e-07 
0 0 0 0 0 0 0 0 0 
0 0 0 0 0 0 0 0 0 
0 0 0 0 1.58682e-10 0 0 0 0 
0 0 0 0 0 0 0 0 0 
0 0 0 0 0 0 0 0 0 
0 0 0 1.19376e-07 0 0 0 0 0 
0 5.51548e-10 0 0 0 0 0 0 0 
0 0 0 0 0 0 0 0 0 
0 0 0 0 0 0 0 9.29177e-11 0 
0 0 0 1.12298e-09 0 0 0 0 0 
0 0 0 4.38972e-10 0 0 0 0 0 
0 0 0 0 0 0 0 0 0 
0 0 0 0 0 0 0 0 0 
0 0 0 0 0 0 4.22482e-10 0 0 
0 0 0 0 0 0 0 0 0 
0 0 0 0 0 1.07067e-09 0 0 0 
0 0 8.92705e-10 0 0 0 8.71431e-10 0 0 
0 0 0 0 0 0 0 0 0 
0 1.53347e-09 9.95541e-10 0 7.5352e-10 0 0 0 0 
0 0 0 0 0 3.01881e-10 0 0 0 
0 0 0 0 0 0 0 0 0 
0 0 0 7.58426e-10 0 0 0 0 0 
0 0 0 0 0 0 0 0 0 
0 0 0 0 0 0 0 0 0 
1.73767e-10 0 0 0 0 0 0 0 0 
0 0 0 0 0 0 0 0 0 
0 0 0 0 0 0 0 0 0 
0 0 0 0 0 0 0 0 0 
0 0 0 0 0 0 0 0 0 
0 0 0 0 0 0 0 0 0 
0 0 0 0 0 0 0 0 0 
0 0 0 0 0 1.12644e-09 0 0 0 
0 0 0 0 0 0 0 0 0 
0 0 0 0 0 0 0 0 0 
0 0 0 0 0 0 0 0 0 
0 0 0 0 0 0 0 0 0 
0 0 0 0 2.93516e-10 0 0 0 0 
0 0 0 0 0 0 0 0 0 
0 0 0 0 0 0 0 0 0 
0 0 0 0 1.13962e-09 0 0 0 0 
0 0 0 0 0 0 0 0 0 
0 0 0 0 0 0 0 0 0 
0 0 0 1.36778e-09 0 0 0 0 0 
0 0 0 0 0 0 0 0 0 
0 0 0 0 0 0 0 1.10942e-09 0 
0 0 0 0 0 0 0 0 0 
0 0 0 0 0 0 0 0 0 
0 0 0 0 0 0 0 9.11864e-10 0 
0 0 0 0 3.59124e-10 0 0 0 0 
0 0 0 0 0 0 0 2.19461e-09 0 
0 0 0 0 0 0 0 0 0 
0 0 0 0 0 0 0 0 0 
0 0 0 0 0 0 0 0 5.98355e-10 
0 0 0 0 0 0 0 0 0 
0 0 0 0 0 4.99167e-10 0 0 0 
0 0 0 0 0 0 0 0 0 
0 0 0 0 8.36931e-10 0 0 0 3.53477e-10 
0 0 0 0 0 0 0 0 0 
0 0 0 0 0 0 0 0 0 
0 0 0 0 0 0 0 0 0 
0 0 0 0 0 0 0 0 0 
0 2.22448e-08 0 8.38916e-10 0 0 2.4594e-10 0 0 
0 0 0 0 0 0 0 0 0 
0 0 0 0 0 0 0 0 0 
0 0 0 1.04425e-09 0 0 0 0 0 
0 0 0 0 0 0 0 0 0 
0 2.22421e-10 0 0 0 0 0 3.83039e-10 0 
0 0 0 0 0 1.77837e-08 0 0 0 
0 0 0 0 0 0 0 0 0 
0 0 0 5.67187e-10 0 0 0 3.21192e-10 1.18897e-08 
0 0 0 0 0 0 0 0 0 
0 0 0 0 0 0 0 0 0 
0 0 0 0 0 0 0 0 0 
0 0 0 0 0 0 0 0 0 
0 0 0 0 0 0 0 0 0 
0 0 0 0 0 0 0 0 0 
0 0 0 0 0 0 0 0 0 
1.36773e-09 0 0 0 0 0 0 0 0 
0 0 0 0 0 0 0 0 0 
0 0 0 0 0 0 0 0 0 
0 3.07724e-10 0 0 0 0 0 0 0 
0 0 0 0 0 0 0 0 0 
0 0 0 0 0 0 0 0 0 
0 0 0 0 0 0 0 0 0 
0 0 0 0 0 0 0 0 5.77716e-10 
0 0 0 0 0 0 0 0 0 
0 0 0 0 0 1.08449e-09 0 0 0 
0 0 0 0 0 0 0 5.68622e-10 0 
0 0 0 0 0 0 0 0 0 
0 0 9.66779e-10 0 0 0 0 0 0 
0 0 0 0 0 0 0 0 0 
0 0 0 0 0 0 0 0 0 
0 0 0 0 0 0 0 0 0 
0 0 0 0 0 0 0 0 0 
0 0 0 0 0 0 0 7.38812e-10 6.1393e-10 
0 0 0 2.75744e-10 0 0 0 0 0 
0 0 0 0 0 0 0 0 0 
0 0 0 0 0 0 0 0 8.78803e-10 
0 0 3.68132e-11 1.04692e-09 0 1.46617e-09 0 0 0 
0 0 0 0 0 0 0 0 0 
0 0 8.74451e-10 0 0 0 0 0 0 
0 0 0 0 0 0 0 0 0 
0 0 0 0 0 0 0 0 0 
0 0 0 0 0 0 0 0 0 
0 0 0 0 0 0 0 0 0 
0 0 0 0 0 0 0 0 0 
8.31577e-10 0 0 0 0 0 0 0 0 
7.17948e-10 0 0 0 0 0 0 0 0 
0 0 0 0 0 0 0 0 0 
0 0 0 0 0 0 0 0 0 
0 0 0 0 0 0 0 0 0 
0 0 0 0 0 0 0 0 0 
6.9535e-10 0 0 0 0 8.4146e-10 0 0 0 
0 0 0 0 0 0 5.81181e-10 4.64823e-10 0 
0 0 0 0 0 0 0 0 0 
0 7.15707e-10 0 0 0 0 0 0 0 
0 0 0 0 0 0 0 0 0 
0 1.40945e-09 0 0 0 0 0 0 0 
0 0 0 0 0 0 0 0 0 
0 0 0 0 0 0 0 0 0 
1.38336e-09 0 0 0 0 0 0 0 0 
0 3.04823e-10 0 0 0 0 0 0 0 
0 0 0 0 0 0 0 0 0 
0 0 0 1.16156e-09 0 0 0 0 0 
0 0 0 0 0 0 0 0 0 
0 0 0 0 0 0 0 0 0 
1.56176e-09 0 0 0 0 0 0 0 0 
0 0 0 0 0 0 0 0 0 
0 0 0 0 0 0 0 0 0 
1.52888e-09 3.04716e-11 0 0 0 0 0 0 0 
0 0 0 0 0 0 0 0 0 
0 0 0 3.33677e-08 0 0 0 0 1.28753e-08 
0 0 0 0 0 0 0 0 0 
1.48178e-09 0 0 0 0 0 4.36742e-10 0 0 
0 0 0 0 0 0 0 0 6.36287e-10 
0 0 0 0 0 0 0 0 0 
0 0 0 0 0 0 0 0 0 
0 0 0 0 0 0 0 0 0 
0 0 0 0 0 0 0 0 0 
0 0 0 0 0 0 0 0 1.16956e-09 
1.05476e-09 0 0 0 0 0 0 0 0 
0 0 0 0 0 0 0 0 0 
0 8.24702e-10 0 3.1543e-09 1.8352e-08 0 0 0 0 
0 0 0 9.67333e-10 0 0 0 0 0 
0 0 0 0 0 0 0 0 8.8351e-10 
0 0 1.13943e-08 0 0 0 0 0 0 
0 0 0 0 0 0 0 0 0 
0 0 0 0 0 1.03686e-10 0 0 0 
0 0 0 0 0 0 0 0 2.32668e-08 
0 0 0 0 0 0 0 0 0 
0 0 0 0 3.86752e-10 0 0 0 0 
0 0 0 0 0 0 0 0 0 
0 0 0 0 0 0 0 0 0 
0 0 0 4.03567e-10 0 0 0 2.12863e-10 0 
0 0 0 0 0 0 0 0 0 
0 0 0 0 0 0 0 4.83809e-10 0 
0 0 0 0 0 5.18272e-10 0 0 0 
0 0 0 0 0 0 0 0 0 
0 1.30007e-09 0 0 0 0 0 0 0 
0 0 0 0 0 0 0 0 0 
0 0 0 0 0 0 0 0 0 
0 0 0 0 0 0 0 0 0 
0 0 0 8.83599e-10 0 0 0 0 0 
0 0 0 3.41798e-09 0 0 0 5.89083e-10 0 
0 0 0 0 0 0 0 0 0 
0 0 0 0 0 0 0 1.74466e-08 0 
0 0 0 0 0 0 0 0 0 
0 0 0 0 0 0 6.74302e-10 0 0 
0 0 0 0 0 0 0 0 0 
0 0 0 0 0 0 1.09079e-09 0 0 
0 0 0 0 0 0 0 0 0 
0 0 0 8.8319e-10 0 0 0 0 0 
0 0 0 0 0 0 0 0 0 
0 0 0 0 0 0 0 4.80828e-10 0 
0 0 0 0 0 0 0 0 0 
0 8.12371e-10 0 0 0 0 0 0 0 
0 0 9.60476e-10 3.37891e-10 0 0 0 0 0 
0 0 5.59972e-10 0 2.92335e-08 0 0 0 0 
0 0 0 0 0 0 0 0 0 
0 0 0 0 0 0 0 0 0 
0 0 0 0 0 0 0 5.2114e-10 0 
0 0 0 2.30728e-09 0 0 0 0 0 
0 0 0 0 0 0 0 9.46994e-10 0 
0 0 9.43396e-11 0 0 0 0 0 0 
0 0 2.82002e-09 0 0 0 4.03295e-10 0 2.17327e-08 
0 0 0 0 4.17291e-10 0 0 0 0 
0 0 0 0 0 0 0 0 0 
7.87008e-10 0 0 0 0 0 0 0 0 
0 0 0 0 0 0 0 0 0 
0 0 0 0 0 0 0 0 0 
5.83185e-10 0 0 0 5.82396e-10 0 0 0 0 
0 1.22796e-10 0 0 0 0 0 0 0 
0 0 0 0 0 0 0 
feature_3 1 2500 float
0 0 0 0 0 0 0 0 0 
0 0 0 0 0 2.71962e-10 0 0 0 
0 0 0 0 0 0 0 0 9.92095e-11 
0 0 0 0 0 0 0 0 0 
0 0 0 0 0 0 0 0 0 
0 0 0 0 0 1.27329e-09 0 0 0 
0 0 0 0 0 0 0 0 0 
8.43173e-10 0 0 0 0 0 0 0 0 
0 0 0 0 0 0 0 0 0 
0 0 0 0 0 0 0 0 0 
0 0 0 0 0 0 0 0 0 
0 0 0 0 0 0 0 0 0 
0 0 0 0 0 0 0 9.39451e-10 0 
0 0 0 1.45499e-09 0 0 6.00803e-10 0 0 
0 0 0 0 0 0 0 0 0 
0 0 0 7.84333e-10 0 0 0 0 0 
0 0 0 0 0 0 0 0 0 
0 0 0 0 0 0 0 0 0 
0 0 0 0 9.00125e-09 0 0 0 6.06825e-10 
0 0 0 0 0 0 0 0 0 
0 0 0 0 0 0 0 0 0 
0 0 0 0 0 0 0 0 0 
0 6.56856e-10 0 0 0 0 0 0 0 
0 0 0 0 0 0 0 0 0 
0 0 0 0 0 0 0 0 0 
0 0 0 0 0 0 0 0 0 
7.43537e-10 0 0 0 0 0 9.89591e-11 0 2.58218e-10 
2.62702e-10 0 0 0 0 0 8.83809e-11 0 0 
0 0 2.37641e-11 0 0 0 0 0 0 
0 0 0 0 0 0 0 0 0 
0 0 0 0 0 0 0 0 9.29575e-10 
0 0 0 0 0 0 0 0 0 
0 0 0 0 0 0 0 0 0 
0 0 0 0 0 0 0 0 0 
0 0 0 0 0 0 0 0 0 
0 0 0 0 0 0 0 0 0 
0 0 0 0 2.75445e-10 0 0 0 0 
0 0 0 0 0 0 0 0 0 
0 0 0 0 0 0 0 0 0 
0 0 0 0 5.31166e-10 0 0 0 0 
0 0 0 0 0 0 0 0 0 
0 0 0 0 0 0 0 0 0 
0 0 0 0 0 0 0 0 0 
0 0 0 0 0 0 0 0 0 
0 0 0 6.93849e-10 0 0 0 0 2.54804e-10 
0 0 0 0 0 0 0 0 0 
0 0 0 0 0 0 0 0 0 
2.60926e-10 0 0 0 0 0 0 0 0 
0 0 4.06065e-10 0 0 0 0 0 0 
0 0 0 0 0 0 0 0 0 
8.22933e-10 0 0 0 0 0 0 0 0 
0 0 0 0 0 0 0 0 0 
0 0 0 0 0 0 0 0 2.25391e-10 
0 0 0 0 0 0 0 0 0 
0 0 0 0 0 0 0 0 0 
0 0 0 0 0 0 0 0 0 
0 0 0 0 0 0 0 0 0 
0 0 0 0 0 0 0 0 0 
0 0 0 0 0 0 0 0 0 
0 0 0 0 0 0 0 0 0 
0 0 0 0 1.4348e-09 0 0 4.71344e-10 0 
0 0 0 0 0 0 0 0 0 
0 0 0 0 0 0 0 0 0 
0 0 0 0 0 0 0 0 0 
0 0 0 0 0 0 0 0 0 
0 0 0 0 0 0 0 0 0 
0 0 0 0 0 0 0 0 0 
0 0 0 0 0 0 0 0 0 
0 0 0 0 0 0 1.74278e-11 0 0 
0 0 0 0 0 0 0 0 0 
0 0 0 0 0 0 0 0 0 
0 0 0 0 0 0 0 0 0 
0 0 0 8.15888e-10 0 0 0 0 0 
0 0 0 0 0 0 0 0 0 
4.49884e-10 0 0 0 0 0 0 0 0 
0 0 0 0 0 0 0 0 0 
0 5.52234e-11 0 0 0 0 9.63748e-10 0 0 
0 0 0 0 0 0 0 1.0988e-09 0 
0 0 0 0 0 0 0 0 0 
1.05443e-09 0 0 0 0 0 0 0 0 
0 0 0 0 0 2.63046e-10 0 0 0 
0 0 0 0 0 0 5.01117e-10 0 0 
0 0 0 0 3.53934e-10 0 0 0 0 
0 0 0 0 0 0 0 0 0 
0 0 0 0 0 0 0 0 0 
0 0 0 8.71818e-10 0 0 0 0 0 
0 0 0 0 0 0 0 0 0 
0 0 0 0 0 0 0 0 0 
9.89914e-10 0 0 0 0 0 0 0 0 
0 0 0 0 0 0 0 0 0 
0 0 0 0 0 0 0 0 0 
0 0 0 0 0 0 0 0 0 
0 0 0 0 0 0 0 0 0 
0 0 0 0 0 0 0 0 8.20616e-10 
0 1.02489e-09 0 0 0 0 0 0 4.97518e-10 
0 0 0 0 0 0 6.13028e-10 0 0 
0 0 0 0 0 0 0 0 0 
0 0 0 0 0 0 0 0 0 
0 0 0 0 1.0258e-07 0 0 0 0 
0 0 0 0 0 0 0 0 0 
0 0 0 0 0 0 0 0 0 
0 0 0 0 0 0 0 0 0 
0 0 7.41657e-10 0 0 0 2.44263e-10 0 0 
0 0 0 0 0 0 0 0 0 
0 0 0 0 0 0 0 0 0 
0 1.07574e-09 0 0 0 0 0 0 0 
7.73781e-11 0 0 0 0 0 0 0 0 
0 0 0 0 0 0 0 0 0 
0 0 0 0 0 0 0 0 0 
0 0 0 0 0 0 0 0 0 
0 0 0 0 0 0 0 0 0 
8.8983e-10 0 0 0 0 4.83627e-10 0 0 0 
0 0 0 0 0 0 0 0 0 
3.78801e-10 0 0 0 0 0 0 0 0 
0 0 0 0 0 0 0 0 0 
0 0 0 0 0 0 0 0 0 
0 0 0 0 0 0 0 0 0 
5.01313e-10 0 0 0 0 0 0 0 0 
0 0 0 0 0 0 0 0 0 
0 0 0 0 0 0 0 0 0 
0 0 0 0 0 0 0 0 0 
0 0 0 0 0 0 1.22463e-09 9.49196e-10 0 
0 0 2.98789e-08 0 0 0 0 0 0 
0 0 0 0 0 0 3.3765e-11 0 0 
0 0 0 0 2.62631e-09 0 0 0 0 
0 0 5.7536e-09 0 0 0 0 0 0 
0 0 0 0 0 0 0 0 0 
0 0 0 0 0 0 0 0 9.39867e-10 
0 2.43567e-10 0 0 0 0 0 0 0 
0 0 0 0 0 0 0 0 9.93124e-10 
0 0 0 0 3.5687e-11 0 0 0 0 
0 0 0 0 0 0 0 0 0 
0 0 0 0 0 0 0 0 0 
0 0 0 0 0 0 0 0 0 
0 0 0 0 0 0 0 0 0 
0 0 0 0 0 0 0 0 0 
0 0 0 0 0 0 0 0 0 
0 0 0 0 0 0 0 0 0 
0 0 0 0 0 0 0 0 6.52696e-10 
0 0 0 0 0 0 0 0 0 
0 0 0 0 0 0 0 0 0 
0 0 0 0 0 0 0 0 0 
0 0 0 0 0 0 0 0 0 
0 0 0 0 0 0 0 0 0 
0 0 0 0 1.47487e-09 1.98134e-08 0 0 2.18438e-08 
0 0 0 0 0 0 0 6.51351e-10 0 
0 1.66566e-08 0 0 0 0 0 0 0 
0 6.98368e-10 0 0 0 0 0 0 0 
0 0 0 0 0 0 0 0 0 
0 0 0 0 0 0 0 0 0 
0 0 0 0 0 0 0 0 4.35904e-10 
0 0 0 0 0 9.92372e-10 0 0 0 
0 0 0 0 0 0 0 0 0 
0 0 0 0 0 5.35765e-10 0 0 0 
0 0 0 0 0 0 0 0 0 
0 9.31692e-10 0 0 0 0 0 0 0 
0 0 0 0 0 0 0 0 0 
0 0 0 0 0 2.9722e-11 0 0 0 
0 0 0 0 0 0 0 0 0 
0 0 0 0 0 0 0 0 0 
0 0 0 0 0 0 0 4.50076e-10 0 
2.27415e-10 0 0 0 0 0 0 0 0 
0 0 4.15037e-10 0 0 0 4.69173e-10 0 0 
0 0 0 0 0 0 0 0 0 
0 0 0 0 0 0 0 0 0 
0 0 0 0 0 0 0 0 0 
0 0 0 0 0 0 0 0 0 
0 0 0 0 0 0 0 1.03433e-09 0 
0 0 0 0 0 0 0 0 0 
0 0 0 0 0 0 0 0 0 
0 0 0 0 0 0 0 0 0 
0 0 0 0 0 0 0 0 0 
0 0 0 0 0 0 0 0 0 
0 0 0 6.91156e-10 0 0 0 0 0 
0 0 0 0 0 0 0 0 0 
0 0 0 0 0 0 0 0 0 
0 0 0 0 0 0 0 0 0 
0 0 0 0 0 0 0 0 0 
0 0 0 0 4.76991e-10 0 0 0 0 
0 0 0 0 0 0 0 0 0 
0 0 0 0 6.95467e-10 8.53333e-10 0 0 0 
0 2.20686e-10 0 0 0 0 0 5.3786e-10 0 
0 0 0 0 0 7.17669e-10 0 0 0 
0 0 0 0 0 0 0 0 0 
0 0 0 0 0 0 0 0 0 
4.0642e-10 0 4.99007e-10 0 0 0 0 0 0 
0 4.64401e-10 0 0 0 0 0 0 0 
0 0 0 0 0 0 0 0 0 
0 0 0 1.04296e-09 0 0 0 0 0 
0 0 0 0 0 0 0 0 0 
0 0 0 0 0 0 0 1.72058e-11 0 
0 0 0 0 0 0 0 0 0 
0 0 0 6.78853e-11 0 0 0 0 0 
0 0 0 0 0 0 0 0 0 
0 0 0 0 0 0 0 0 0 
0 0 0 0 1.36523e-09 0 0 0 0 
0 0 0 0 0 0 0 8.05212e-10 0 
0 0 9.93641e-10 0 0 0 0 0 0 
2.83734e-08 0 0 0 0 0 0 4.24347e-10 0 
0 0 0 1.24444e-09 0 0 0 0 0 
1.51563e-08 0 0 0 0 0 0 0 0 
0 0 0 0 0 0 0 0 0 
0 0 0 4.5504e-10 0 0 0 0 7.655e-10 
0 0 0 0 0 0 0 0 0 
0 0 0 0 0 0 0 0 0 
0 0 0 0 0 0 0 0 0 
0 0 0 0 0 4.36472e-10 0 0 0 
0 0 0 0 0 0 0 0 0 
0 0 0 6.29914e-10 0 0 0 0 0 
0 0 0 0 0 0 0 0 0 
0 0 0 0 0 0 0 0 0 
0 0 0 0 0 0 0 0 0 
0 0 0 0 0 0 0 0 0 
0 0 0 0 0 0 0 0 0 
0 0 0 0 0 0 0 0 0 
0 0 0 0 0 7.81959e-10 0 0 0 
0 0 0 0 0 0 0 0 0 
0 0 0 0 0 6.79963e-10 0 0 0 
0 0 0 0 0 7.59492e-10 0 0 0 
0 0 0 0 0 0 0 0 0 
0 0 0 0 0 0 0 0 0 
0 0 0 0 0 0 0 9.27052e-10 0 
0 0 0 6.66308e-10 0 0 0 0 0 
0 0 0 0 0 0 0 0 0 
0 0 0 0 0 0 0 0 0 
0 0 0 0 0 0 0 0 1.21475e-09 
0 0 0 0 0 0 0 0 0 
0 0 5.71859e-10 0 0 0 0 0 0 
0 0 0 0 0 0 0 0 0 
1.79922e-10 0 0 0 0 0 0 0 0 
0 7.67876e-10 0 0 0 5.47645e-10 0 0 0 
0 0 0 0 0 0 0 0 0 
6.1096e-10 0 0 0 0 1.2333e-09 0 0 0 
0 0 0 0 0 0 0 0 0 
0 0 0 0 0 0 0 0 0 
0 0 0 0 0 0 0 0 0 
0 0 0 0 0 0 0 0 0 
0 0 0 0 0 0 0 0 0 
0 0 0 0 0 0 0 0 0 
0 1.05828e-09 0 0 0 0 0 0 0 
0 0 0 0 0 0 0 5.45249e-10 0 
0 9.34826e-11 0 0 0 0 0 0 9.39995e-10 
0 0 0 0 0 0 0 0 0 
0 0 0 0 0 0 0 0 0 
0 0 0 0 0 0 0 0 0 
0 0 0 0 0 0 0 0 8.99806e-10 
0 0 0 0 0 0 0 0 0 
0 0 1.16256e-09 0 0 0 0 0 0 
0 0 0 0 0 0 0 0 0 
0 0 0 0 0 0 0 0 0 
1.30064e-08 0 0 0 0 0 0 0 0 
0 0 0 0 0 0 0 0 0 
0 0 0 0 0 0 0 0 0 
0 0 0 0 0 0 0 0 0 
0 0 0 0 0 0 0 0 0 
0 0 0 0 0 0 0 0 0 
0 0 0 0 0 0 0 0 0 
0 0 1.13834e-09 0 0 0 0 0 0 
0 0 0 0 0 0 0 0 0 
0 0 0 0 0 0 0 0 0 
0 0 0 0 0 0 0 0 0 
0 0 0 0 0 0 0 0 0 
0 0 0 0 0 0 0 0 3.86176e-10 
0 0 1.14496e-09 0 0 0 0 0 0 
0 0 0 0 0 0 0 0 0 
0 0 0 0 0 0 0 0 0 
0 0 0 0 0 0 0 0 0 
0 0 0 0 0 0 0 0 0 
0 0 0 0 0 0 0 0 0 
0 0 0 0 0 0 0 0 0 
8.12552e-10 0 0 0 0 0 0 0 0 
0 0 7.25215e-10 0 0 0 0 0 0 
0 6.78806e-10 0 0 0 0 0 0 0 
0 0 0 0 0 0 0 0 0 
0 0 0 0 0 0 0 1.36167e-09 0 
0 2.16012e-08 6.93234e-10 0 0 7.17876e-10 0 0 0 
0 0 0 0 0 0 0 0 0 
0 0 0 0 0 0 0 
feature_4 1 2500 float
0 0 0 0 0 0 0 0 0 
0 1.12155e-09 0 1.31898e-09 0 0 0 0 0 
0 0 0 5.66807e-10 0 0 1.17268e-09 0 0 
0 0 0 0 0 0 0 0 0 
0 0 0 0 0 0 0 0 0 
0 0 0 0 0 0 1.18696e-10 0 0 
0 0 0 0 0 0 0 0 0 
0 0 0 0 0 0 0 0 0 
0 0 0 4.80111e-10 0 0 0 0 0 
0 0 0 0 0 0 0 0 0 
0 0 0 0 0 0 0 0 0 
0 0 1.33808e-09 0 0 0 0 0 0 
0 0 0 0 0 0 0 0 0 
0 0 0 0 0 0 0 0 0 
0 3.85146e-10 0 0 0 0 0 0 4.09432e-10 
0 0 0 0 0 0 0 0 0 
0 4.04828e-10 0 0 0 1.09266e-09 8.47855e-10 0 0 
0 0 0 0 0 0 0 0 0 
0 0 0 0 0 0 0 0 0 
0 0 0 0 0 0 0 0 0 
0 0 0 0 0 2.48471e-10 0 0 0 
0 0 0 0 0 0 0 0 5.04803e-10 
0 0 0 0 0 0 0 0 0 
0 0 0 0 0 0 0 0 0 
0 0 0 0 0 0 0 0 0 
0 0 0 0 0 0 0 0 0 
0 0 0 0 0 1.7756e-10 0 0 0 
8.84906e-10 0 0 0 0 0 0 0 0 
0 0 0 0 0 0 0 0 0 
0 0 0 0 0 0 0 0 0 
0 0 0 0 0 0 0 0 0 
0 0 9.52852e-10 0 0 8.77911e-11 0 0 0 
0 0 0 0 0 0 0 0 0 
0 0 0 0 0 0 0 0 0 
0 0 0 0 0 0 0 0 0 
0 0 0 0 0 0 0 1.03889e-09 0 
0 0 0 0 0 0 0 0 0 
0 0 0 0 0 0 0 0 0 
0 0 8.29278e-10 0 0 0 0 0 0 
0 0 0 0 0 0 0 0 0 
0 0 0 0 0 0 0 0 0 
0 0 0 0 0 0 0 0 0 
0 0 0 0 0 0 0 0 0 
0 5.53806e-10 0 0 0 0 0 0 0 
0 0 0 0 0 0 4.47024e-10 0 0 
0 0 0 0 0 0 0 0 0 
0 0 0 0 0 0 0 0 0 
0 0 0 0 0 0 0 0 5.34655e-10 
0 0 0 0 9.4709e-10 0 0 0 0 
0 0 0 0 0 0 0 0 0 
0 0 0 0 0 0 0 0 0 
0 0 0 5.99531e-10 0 0 0 0 0 
0 0 0 0 0 0 0 0 0 
0 0 0 3.83721e-10 0 0 0 0 0 
0 0 0 0 0 0 0 0 0 
0 0 0 0 0 0 0 0 0 
0 0 0 0 0 1.85036e-10 0 0 0 
0 0 0 0 0 0 0 0 0 
0 1.05535e-09 0 0 0 0 0 0 0 
0 0 0 8.27791e-10 0 0 0 0 0 
0 0 0 0 0 0 0 0 0 
0 0 0 0 0 0 0 0 0 
0 0 0 0 0 0 8.56073e-10 0 0 
0 0 0 0 0 0 0 0 0 
0 0 0 0 0 0 0 0 0 
0 0 0 0 0 0 0 0 0 
0 0 8.83126e-10 0 0 0 0 0 0 
0 0 5.07594e-10 0 0 0 0 0 0 
0 0 0 0 0 0 0 0 0 
0 0 0 0 0 0 0 0 0 
0 0 6.42451e-10 0 0 0 0 0 0 
0 0 0 0 0 0 0 0 0 
0 0 0 0 0 0 0 0 0 
0 0 0 0 0 0 0 0 0 
0 0 0 0 0 0 0 0 0 
0 0 0 0 0 0 0 0 0 
0 0 0 0 0 0 0 0 0 
0 0 0 0 0 0 0 0 0 
0 0 0 0 0 0 0 0 0 
0 0 0 0 0 0 0 0 0 
4.24279e-10 0 0 0 0 0 0 0 0 
0 0 0 0 0 0 0 7.06503e-10 3.33399e-10 
0 0 0 0 0 0 0 0 0 
0 0 0 0 0 0 0 0 0 
0 0 0 0 0 0 0 0 0 
0 0 0 0 0 0 0 0 0 
0 0 0 0 0 0 0 0 0 
0 0 0 0 0 0 0 0 0 
0 0 0 0 0 0 0 0 0 
0 0 0 0 0 0 0 0 0 
0 0 3.47473e-10 1.13229e-09 0 0 0 0 0 
0 0 0 0 0 0 0 0 0 
0 0 0 0 0 0 0 0 0 
0 0 0 0 0 0 0 0 0 
0 0 0 0 0 0 0 0 0 
0 0 0 0 0 0 0 0 0 
0 0 0 0 0 0 0 0 0 
0 0 0 0 0 0 0 0 0 
4.52722e-10 0 0 0 0 0 0 0 1.1921e-09 
0 0 0 0 0 0 0 0 0 
0 0 0 0 0 0 1.19564e-09 0 0 
0 0 0 0 0 0 0 0 0 
0 7.84617e-10 0 0 0 0 0 0 0 
1.26274e-09 0 0 0 0 0 0 0 0 
0 0 0 0 0 0 0 0 0 
0 0 0 0 0 0 0 0 0 
0 0 0 0 0 0 0 0 0 
0 0 1.04054e-09 0 0 0 0 0 6.84992e-10 
0 0 0 0 0 0 0 0 0 
0 0 1.60149e-10 0 0 0 0 0 0 
0 0 0 0 0 0 0 0 0 
0 0 0 8.04711e-10 0 0 0 0 0 
0 0 0 0 0 0 0 0 0 
0 0 0 0 0 0 0 0 0 
0 0 0 0 0 0 0 0 0 
0 0 0 0 0 0 0 0 0 
0 0 0 0 0 0 0 0 0 
0 0 0 0 0 0 0 0 0 
0 0 0 0 0 0 0 0 0 
0 0 0 0 0 0 6.55945e-10 8.49511e-10 0 
0 0 0 0 0 0 0 0 0 
0 0 0 0 0 0 0 7.77732e-10 0 
0 0 0 0 0 0 0 0 0 
0 0 0 0 0 0 0 0 0 
0 0 0 0 0 0 0 0 0 
0 0 0 0 6.01156e-10 0 0 0 0 
0 0 0 0 0 0 0 0 0 
0 0 0 0 0 0 0 0 0 
0 0 0 0 0 0 0 0 0 
0 0 0 0 0 0 0 0 0 
0 0 0 0 0 0 0 0 0 
0 0 0 0 0 0 0 0 0 
0 0 0 4.50077e-10 0 0 0 0 0 
0 0 0 0 0 0 0 0 0 
0 0 0 0 0 0 0 0 0 
0 0 0 0 0 0 0 4.85894e-10 0 
0 0 0 0 0 0 0 0 0 
0 0 0 0 0 0 0 0 0 
0 0 0 0 0 0 0 0 0 
0 0 0 0 0 0 0 0 0 
0 1.53883e-09 0 0 0 3.97416e-10 0 0 0 
0 0 0 0 0 0 0 0 0 
0 0 0 0 0 0 0 0 0 
0 7.75938e-10 0 0 0 0 0 1.11349e-09 0 
0 0 0 0 0 0 0 0 0 
0 0 0 0 0 0 0 0 0 
0 0 0 0 0 0 0 0 0 
0 0 0 0 0 0 5.31976e-10 0 0 
0 0 0 0 0 0 0 0 0 
0 0 0 0 0 0 0 0 1.01457e-09 
0 0 0 0 0 0 0 0 0 
0 0 0 1.44271e-09 0 0 0 0 0 
0 0 0 0 0 0 0 0 0 
0 0 0 0 0 0 0 0 0 
0 0 0 0 0 0 1.11502e-09 0 0 
0 0 0 0 0 0 0 2.47312e-10 0 
0 0 0 0 0 0 0 0 0 
0 0 0 1.12779e-09 6.61981e-10 0 0 0 0 
0 0 0 0 0 0 0 0 0 
0 0 0 0 0 0 0 0 0 
0 0 0 0 0 0 0 0 0 
0 0 0 0 0 0 0 0 0 
0 5.14595e-10 0 0 0 0 0 0 0 
0 0 0 0 0 0 0 0 0 
0 0 0 0 0 0 0 0 0 
0 0 0 0 0 0 0 0 0 
0 0 0 0 0 0 0 0 0 
0 0 0 0 0 0 0 0 0 
0 0 0 0 0 0 0 0 0 
0 0 0 0 0 0 0 0 2.9136e-10 
0 0 0 0 0 0 0 0 0 
0 4.57231e-10 0 0 0 0 8.46864e-10 0 0 
0 0 0 0 0 0 0 0 0 
0 0 0 0 0 0 0 0 0 
0 0 0 0 0 0 0 3.43345e-10 0 
0 1.15448e-09 0 0 0 0 5.94689e-10 0 0 
5.12401e-10 0 0 0 0 0 0 8.82023e-10 0 
0 0 0 0 0 0 0 0 0 
0 0 0 0 0 0 0 0 0 
0 0 0 0 0 0 0 0 0 
0 5.12316e-10 0 0 0 0 3.96098e-10 0 0 
0 0 0 0 0 0 0 0 0 
0 0 0 0 0 0 0 0 0 
0 0 0 0 0 0 0 0 0 
0 0 0 0 0 0 0 0 0 
0 0 0 0 0 0 0 0 0 
2.72228e-10 0 0 0 0 0 0 0 0 
0 0 0 0 0 0 0 0 0 
0 0 0 0 0 0 0 6.47713e-10 0 
0 0 0 0 0 0 0 0 0 
0 0 0 0 0 0 0 0 0 
0 0 0 0 0 9.30509e-10 0 0 0 
0 0 0 0 0 0 0 0 0 
0 0 0 0 9.57755e-10 0 6.37868e-10 0 0 
0 0 0 0 0 0 0 0 0 
0 0 0 0 0 0 0 0 0 
0 0 0 0 0 0 0 0 0 
0 0 0 0 0 0 0 0 0 
0 0 0 0 0 0 0 0 0 
0 0 0 0 0 0 0 0 0 
0 0 0 0 0 0 0 0 0 
0 0 0 0 0 0 0 0 0 
7.45157e-10 0 0 0 0 0 0 0 0 
0 0 0 1.95902e-10 0 0 0 0 0 
0 0 3.30941e-10 0 0 0 0 0 0 
0 0 0 0 0 0 0 0 0 
0 0 0 0 0 0 0 0 0 
0 0 0 0 0 0 0 0 0 
0 0 0 0 0 0 0 0 0 
8.74063e-10 0 5.5907e-10 4.85745e-10 0 0 0 0 0 
0 0 0 0 0 0 0 0 0 
0 0 0 0 0 0 0 0 0 
0 0 0 6.78305e-10 0 0 0 0 0 
0 0 0 0 0 0 1.17226e-09 0 0 
0 0 0 0 0 0 0 0 0 
0 0 0 0 0 0 0 0 0 
0 0 0 0 0 0 0 0 0 
0 0 0 0 0 0 0 0 0 
0 0 0 0 0 0 0 0 0 
0 0 0 0 0 0 0 0 0 
0 0 0 0 0 0 0 0 0 
0 0 0 0 0 0 0 0 0 
0 0 0 0 0 0 0 0 0 
0 0 0 0 0 0 0 0 0 
0 0 9.43878e-10 0 0 0 0 0 0 
0 0 0 0 0 0 0 0 0 
0 0 0 0 0 0 0 0 0 
0 0 0 0 0 0 0 0 0 
7.47139e-10 0 0 0 0 0 0 1.08907e-09 0 
0 0 0 0 0 0 0 0 0 
0 0 0 0 0 0 0 0 0 
5.51118e-10 0 0 0 7.46912e-10 0 0 0 0 
0 0 0 0 0 0 0 0 0 
0 0 0 0 0 0 0 0 0 
0 0 0 0 0 0 0 0 0 
0 0 0 7.3126e-10 0 0 1.32541e-09 0 0 
0 0 0 1.70079e-10 0 0 0 0 0 
0 0 0 0 0 0 0 0 0 
0 0 0 0 0 0 0 0 0 
0 0 0 0 0 0 0 9.58966e-10 0 
0 0 0 4.2732e-10 0 0 0 0 0 
0 0 0 0 0 7.79551e-10 0 0 0 
0 0 0 0 0 0 0 0 0 
0 0 0 0 0 0 0 1.39047e-09 0 
0 0 0 0 0 0 0 0 0 
0 0 0 0 0 0 0 0 0 
0 0 1.14716e-09 0 0 0 0 0 0 
0 0 0 0 0 0 0 0 0 
0 0 0 0 0 0 0 0 0 
0 0 6.51763e-10 0 0 0 0 0 0 
0 0 0 0 0 0 0 0 0 
0 0 0 0 0 0 7.67812e-10 0 0 
0 0 0 0 0 4.79179e-10 0 0 0 
6.06704e-10 0 0 0 0 0 0 0 0 
0 0 0 0 7.77071e-10 0 0 0 0 
0 0 0 0 0 0 0 0 0 
0 0 0 0 0 0 0 0 0 
0 0 0 0 0 0 0 0 0 
0 5.30738e-10 0 3.67603e-10 0 0 0 0 0 
0 0 0 7.51928e-10 0 0 0 0 0 
0 0 0 0 0 0 0 0 0 
0 0 0 0 0 0 0 0 0 
0 0 8.14934e-10 0 0 0 0 0 0 
0 0 0 0 0 0 0 0 0 
0 0 0 0 0 0 0 0 0 
0 0 4.76542e-10 0 0 0 0 0 0 
0 0 0 0 0 0 0 0 0 
0 0 0 0 0 0 7.66121e-10 0 0 
0 0 0 0 0 0 0 1.1781e-09 0 
0 0 0 0 0 0 0 0 0 
0 0 0 0 0 0 0 0 0 
0 0 0 0 0 0 0 0 0 
0 0 0 0 0 2.16613e-10 0 0 0 
0 1.03478e-09 0 0 0 0 0 0 0 
0 0 0 0 0 0 0 0 0 
0 0 0 0 0 7.71522e-10 0 0 0 
0 0 0 0 0 0 0 0 0 
0 0 0 0 0 0 0 
feature_5 1 2500 float
0 0 0 0 0 0 0 0 0 
0 0 0 0 0 0 0 0 0 
0 0 0 0 0 0 0 0 0 
0 0 0 0 0 0 6.99561e-10 0 0 
2.19902e-10 0 0 0 0 4.07493e-10 0 0 0 
0 0 0 0 0 0 0 0 0 
0 1.29744e-09 0 0 0 0 0 0 0 
0 0 0 0 0 0 0 0 0 
0 0 0 0 0 0 0 0 0 
0 0 0 0 0 0 0 1.43847e-09 0 
0 0 1.21567e-09 0 0 0 0 0 0 
3.27801e-08 0 1.11323e-09 0 0 0 0 0 0 
0 0 2.16481e-10 0 7.29116e-10 0 0 0 0 
0 0 0 0 0 0 0 0 0 
0 0 0 0 0 0 0 0 0 
0 0 0 0 0 0 8.0745e-10 0 0 
0 0 0 0 0 0 0 0 1.06574e-09 
0 0 0 0 0 0 3.22508e-10 0 0 
0 0 0 0 0 0 0 0 0 
0 0 0 0 0 0 0 0 0 
0 0 0 0 0 0 4.30269e-10 0 0 
0 0 0 3.05256e-08 0 0 1.57517e-10 0 2.4962e-08 
0 0 4.85535e-10 6.29342e-10 0 0 0 0 0 
0 0 0 0 0 0 0 0 0 
0 0 1.39546e-08 0 0 0 0 0 0 
0 0 0 0 0 0 0 0 1.4613e-09 
0 0 0 0 0 0 0 0 0 
0 0 1.48814e-08 0 0 0 0 0 0 
0 0 0 0 0 0 0 1.00783e-09 0 
0 0 0 0 0 0 0 0 0 
0 0 0 0 0 0 0 0 0 
0 0 0 0 0 0 0 1.65553e-10 0 
0 0 0 0 8.43166e-10 0 0 0 0 
0 0 0 5.60361e-11 0 0 0 0 0 
0 0 0 0 0 0 0 0 0 
0 0 0 0 0 0 0 0 0 
0 0 0 0 0 0 0 0 0 
0 0 0 0 0 0 0 1.39478e-08 0 
0 0 0 7.26658e-10 0 0 0 0 0 
0 0 0 0 0 0 0 0 0 
0 4.12008e-10 0 0 0 0 0 0 0 
7.25638e-10 0 0 0 0 0 0 0 0 
0 0 0 0 0 0 0 0 0 
9.5854e-11 0 0 0 8.09784e-10 0 0 0 0 
0 0 0 0 0 0 1.87006e-08 0 0 
0 0 0 1.27389e-07 0 0 0 0 3.94403e-09 
0 0 0 1.04439e-09 0 7.16415e-10 0 0 0 
0 0 0 0 0 0 0 0 9.51516e-10 
0 0 0 0 0 0 0 0 0 
0 0 0 0 0 0 0 0 0 
0 0 0 0 0 0 0 0 0 
0 8.85706e-10 0 0 8.2354e-10 0 0 0 0 
0 0 0 0 0 0 0 0 0 
0 0 0 0 0 0 0 0 0 
0 0 0 0 0 0 0 0 0 
7.58341e-10 0 0 1.14544e-09 0 0 0 0 0 
2.37519e-08 0 0 0 0 0 0 0 0 
0 0 0 0 0 0 0 1.53052e-09 0 
0 9.77341e-10 0 0 0 0 0 0 5.8915e-10 
0 6.79265e-10 0 0 0 0 0 6.55501e-10 4.15827e-11 
0 0 0 0 0 0 0 1.9175e-08 0 
0 0 0 0 0 9.97247e-10 0 0 0 
0 0 0 0 0 0 0 0 0 
0 0 0 0 0 0 0 0 0 
0 0 0 0 0 0 0 0 0 
0 0 0 0 0 0 0 0 0 
0 0 0 0 0 0 0 0 0 
0 0 0 0 0 0 0 0 0 