# vtk DataFile Version 5.1
vtk output
ASCII
DATASET STRUCTURED_POINTS
DIMENSIONS 50 50 1
SPACING 1 1 1
ORIGIN 0 0 0
POINT_DATA 2500
FIELD FieldData 6
feature_1 1 2500 float
0 0 0 0 3.9951e-10 0 0 0 0 
0 0 0 0 0 0 0 0 0 
0 0 0 0 0 0 6.18428e-10 0 0 
0 0 0 0 0 0 0 0 0 
0 0 0 0 0 0 0 0 4.3924e-10 
0 0 0 0 0 0 0 0 0 
0 0 3.75589e-10 0 9.07823e-11 0 0 0 0 
0 0 0 0 0 0 3.89237e-10 0 0 
0 0 0 0 0 0 0 0 0 
0 0 0 0 0 0 0 0 0 
2.15943e-10 0 0 4.90008e-10 0 0 0 6.65004e-10 5.61919e-10 
0 1.83096e-10 0 0 0 0 0 0 0 
0 0 0 0 0 0 0 0 0 
0 0 0 0 0 0 0 0 0 
0 2.08064e-10 0 0 0 0 0 0 0 
0 0 0 0 0 0 0 0 0 
0 3.51882e-10 0 0 0 0 0 0 0 
0 0 3.29543e-10 0 0 0 0 0 0 
0 0 0 0 0 0 0 0 0 
0 0 0 0 0 0 0 0 0 
0 0 0 0 0 0 0 0 0 
0 0 0 0 0 0 0 1.60298e-11 0 
0 0 0 0 0 0 0 0 0 
0 0 0 0 0 0 0 0 0 
0 0 0 0 0 0 0 3.74712e-10 0 
0 0 0 0 0 0 0 0 0 
0 0 0 0 0 0 0 0 0 
0 0 0 0 0 0 0 0 5.45523e-10 
0 0 0 0 0 0 0 0 0 
0 0 0 0 0 0 0 0 0 
0 0 0 0 0 0 0 0 0 
0 0 0 2.94019e-10 0 0 0 0 0 
0 0 0 0 0 0 0 0 0 
0 0 0 0 0 0 0 0 0 
0 8.14023e-10 0 0 0 0 0 0 0 
0 0 0 1.57495e-10 0 0 0 0 0 
0 0 0 0 0 0 0 0 0 
0 0 0 0 0 0 0 0 0 
0 0 0 0 0 0 0 0 0 
0 0 0 0 0 0 0 5.73085e-10 0 
0 0 0 9.24345e-11 0 0 0 0 2.68766e-08 
7.28971e-10 0 0 0 0 0 0 0 6.77259e-06 
5.1178e-08 0 0 0 0 0 0 0 0 
0 0 0 0 0 0 0 0 0 
0 0 0 0 0 0 0 0 0 
0 0 0 6.78063e-06 0 0 0 0 0 
0 0 0 0 6.79167e-06 0 0 0 0 
0 0 0 0 0 0 0 0 0 
0 6.99284e-10 0 0 0 0 0 0 0 
0 0 0 0 0 0 0 0 0 
0 1.68793e-10 0 0 0 0 0 0 2.89617e-11 
0 0 0 0 0 0 0 0 2.98467e-08 
0 0 0 0 0 0 0 0 0 
0 0 2.27478e-09 0 0 0 0 0 0 
0 0 0 0 0 0 0 0 0 
0 0 0 0 0 0 0 0 0 
0 0 0 0 0 0 0 0 0 
0 0 0 7.18656e-06 0 6.13738e-10 0 0 0 
0 0 0 0 0 0 0 0 0 
0 0 3.16188e-08 0 7.5816e-10 0 0 0 0 
6.87262e-06 0 0 0 0 3.38765e-10 0 0 0 
0 0 0 0 3.32037e-10 0 0 0 0 
0 0 7.19024e-06 0 0 7.02507e-06 0 7.35817e-06 5.42176e-10 
0 0 0 4.7655e-10 0 0 0 0 0 
0 0 0 0 0 0 8.09848e-06 8.39601e-06 0 
0 3.75611e-08 6.88845e-06 0 0 3.32631e-08 0 0 0 
0 0 0 0 0 0 0 0 0 
0 0 0 0 0 6.13737e-08 7.16868e-06 0 0 
0 0 0 0 0 0 0 0 0 
0 0 0 0 0 0 0 0 0 
0 8.81389e-10 0 0 7.2542e-06 0 0 3.46493e-08 0 
6.93505e-06 0 0 0 0 0 0 0 0 
0 0 0 2.39126e-10 0 0 0 0 0 
0 1.49531e-08 0 0 0 0 0 0 0 
0 0 0 0 0 0 0 0 6.80408e-06 
0 0 6.81086e-06 0 0 0 0 0 0 
0 7.37327e-10 0 0 0 0 0 0 0 
6.60325e-11 0 5.03967e-10 0 0 0 0 0 0 
0 0 0 0 0 4.45088e-10 0 0 0 
0 0 0 0 0 0 0 0 0 
0 8.91536e-11 0 0 2.24349e-08 0 0 5.34852e-08 0 
0 0 0 0 0 0 0 0 0 
0 0 0 0 0 0 0 0 0 
0 0 0 0 0 0 0 0 0 
0 0 0 0 0 6.91688e-06 0 2.59924e-07 7.38931e-06 
0 0 0 0 0 0 0 0 0 
0 0 0 0 0 0 0 6.87065e-06 6.56398e-08 
0 0 0 0 0 0 0 0 0 
0 0 0 0 0 0 0 0 8.79741e-10 
0 0 0 0 0 0 0 0 0 
0 4.73003e-08 0 7.63992e-06 0 0 0 0 0 
5.96533e-10 1.69912e-08 6.79928e-06 3.19051e-08 0 0 0 8.82601e-11 0 
0 0 0 0 5.69531e-08 0 0 0 0 
0 0 0 0 0 0 0 0 0 
0 0 0 0 0 0 0 0 0 
0 0 0 4.24023e-10 2.77929e-10 0 0 0 0 
7.45458e-06 0 0 7.62925e-09 0 9.25912e-10 0 0 0 
0 0 2.20009e-08 0 0 0 7.77247e-09 0 0 
0 0 0 0 6.12246e-07 0 0 0 0 
6.7989e-10 0 1.21155e-10 2.55749e-10 0 0 0 5.33756e-10 0 
4.69621e-10 0 0 8.37062e-10 0 0 0 0 0 
0 0 6.83886e-06 0 0 0 3.86946e-08 0 0 
0 0 0 0 0 0 0 0 6.97824e-06 
0 0 0 0 0 8.10842e-06 0 0 7.50067e-06 
0 7.56101e-06 0 0 0 0 3.99183e-11 0 0 
0 0 0 0 0 0 0 0 0 
0 0 0 0 0 0 0 0 0 
0 0 7.07936e-06 0 7.22905e-06 7.38336e-08 8.60321e-06 9.30448e-06 0 
0 0 0 4.91573e-08 0 0 0 0 0 
0 5.57406e-08 0 0 0 7.99584e-06 0 0 0 
0 0 0 0 0 0 0 0 0 
0 0 0 5.00886e-10 0 0 0 0 0 
0 0 0 0 0 0 0 0 0 
0 0 0 8.41372e-06 4.24234e-08 4.3347e-10 0 0 0 
0 0 0 0 0 0 0 0 7.41791e-06 
0 0 7.43912e-06 0 0 0 0 0 0 
0 0 0 0 0 0 0 0 0 
0 0 0 0 0 0 0 0 0 
0 0 0 0 0 0 0 0 3.15639e-08 
0 0 0 0 0 0 0 0 0 
0 7.09013e-06 0 7.53788e-06 0 0 0 2.89416e-08 0 
0 0 0 0 0 0 0 0 0 
0 0 0 0 0 0 0 0 2.56405e-08 
8.01434e-06 8.01946e-06 0 0 1.83178e-11 0 0 6.78859e-06 0 
0 0 0 0 2.01356e-08 0 0 0 0 
0 0 0 0 0 0 0 0 6.95808e-08 
0 0 0 0 0 0 0 0 0 
0 0 0 0 0 0 0 0 0 
0 0 0 0 1.66553e-08 0 0 0 0 
0 0 0 4.45186e-08 0 0 3.24032e-08 6.86382e-06 0 
0 0 0 0 0 0 7.18358e-06 0 0 
0 0 0 7.1389e-06 0 7.12208e-06 0 0 6.83601e-06 
2.75647e-08 0 0 0 3.29678e-10 0 0 0 0 
0 0 0 0 0 0 0 0 0 
0 0 2.26063e-10 0 0 0 0 0 0 
0 0 0 0 0 0 0 0 0 
0 0 0 7.20026e-06 0 0 0 0 0 
0 1.34955e-08 0 0 0 0 0 0 0 
0 0 0 0 0 0 0 0 0 
0 0 0 0 0 0 0 0 0 
0 0 0 0 0 0 0 0 0 
6.95444e-06 0 0 0 0 8.21159e-06 0 0 0 
0 0 0 0 0 0 0 9.92391e-09 0 
0 0 0 0 0 0 2.80892e-10 0 0 
0 0 0 0 0 0 0 0 0 
0 0 0 0 0 0 0 0 0 
0 0 0 0 8.50989e-10 0 0 2.14164e-08 7.53101e-06 
3.14704e-06 8.61564e-06 0 0 0 0 0 0 0 
0 0 0 0 0 0 0 0 0 
3.23889e-08 0 0 0 0 0 0 0 0 
0 0 0 0 0 0 0 0 0 
0 0 0 0 0 0 0 0 0 
0 0 6.97118e-06 0 0 7.64631e-06 0 0 0 
6.90786e-06 0 0 0 1.835e-08 0 0 0 0 
0 0 0 0 6.76995e-06 3.2599e-08 0 0 0 
0 0 0 7.30864e-11 0 0 0 0 0 
0 0 0 0 0 0 0 0 6.74301e-08 
0 0 0 0 0 0 0 0 0 
0 0 0 0 0 0 0 7.05602e-06 0 
6.70408e-06 0 0 0 6.79682e-06 0 6.41062e-10 0 0 
0 0 0 0 0 0 0 0 0 
0 0 0 0 0 0 0 0 0 
6.88022e-06 0 0 0 6.87699e-06 0 0 0 0 
0 0 0 0 0 0 0 0 0 
0 0 0 2.50569e-08 0 0 0 0 0 
0 0 3.3997e-10 7.70424e-11 0 0 0 0 0 
0 0 0 0 0 0 0 0 0 
0 0 0 0 0 0 0 8.1786e-06 0 
0 0 0 3.78283e-09 0 0 0 0 0 
0 0 0 0 0 0 0 0 0 
0 0 2.94032e-08 6.81585e-06 1.36693e-08 0 0 0 0 
0 0 0 0 0 2.14591e-10 0 0 0 
0 0 0 0 0 0 0 0 0 
0 0 0 8.05667e-06 0 0 0 0 0 
0 0 0 6.79407e-06 7.82165e-10 0 0 0 0 
0 0 0 0 0 0 0 0 0 
0 0 0 0 0 0 0 0 0 
0 0 0 0 0 0 0 0 0 
0 0 0 0 0 0 0 0 0 
0 5.05732e-10 0 0 0 0 0 8.86114e-10 0 
0 0 4.27796e-10 0 0 0 0 0 0 
4.83885e-08 0 0 0 0 0 0 0 9.06333e-10 
7.2331e-06 0 0 0 0 0 0 0 0 
0 0 6.58218e-10 0 0 0 0 0 0 
0 0 0 0 0 0 0 6.7832e-06 4.13639e-10 
1.15008e-08 0 3.563e-10 0 0 0 0 0 0 
0 0 0 0 3.2277e-08 6.7803e-06 4.30354e-08 0 0 
0 0 0 0 7.18623e-06 0 1.05437e-07 6.88676e-06 0 
0 0 0 0 0 0 0 0 0 
0 0 0 0 0 0 0 0 0 
0 0 0 0 0 0 0 3.9645e-08 6.88304e-06 
4.03591e-08 0 0 0 0 0 3.6201e-08 0 0 
0 0 0 0 0 0 0 3.63416e-10 0 
1.56016e-10 0 1.59306e-08 0 0 0 0 0 0 
0 0 0 0 0 0 0 0 0 
4.50274e-10 0 0 6.77735e-06 0 0 0 0 0 
0 0 0 0 0 0 0 0 0 
0 0 6.96492e-06 4.57044e-08 0 0 0 0 0 
0 1.17661e-09 0 0 0 0 0 0 0 
0 0 0 0 0 0 0 0 0 
0 0 0 0 0 0 0 0 0 
0 0 0 0 0 0 0 8.03156e-06 2.3655e-10 
0 3.4737e-10 1.88637e-10 0 8.02733e-06 8.10451e-06 0 0 0 
6.98938e-06 0 0 0 0 0 0 0 0 
0 0 0 0 0 0 0 0 0 
0 0 0 0 0 0 0 0 0 
0 0 6.49067e-10 0 0 0 2.95936e-10 0 0 
0 0 0 0 0 0 0 2.34344e-10 0 
0 0 0 0 3.79165e-08 0 7.08578e-10 0 0 
0 0 0 0 7.46606e-10 8.65516e-10 0 0 0 
0 0 0 0 0 0 0 0 0 
0 0 0 0 0 0 0 0 0 
0 0 1.70897e-08 0 0 0 1.71234e-10 0 0 
0 0 0 0 0 0 0 0 0 
8.44006e-06 0 8.24121e-08 7.21772e-06 0 0 0 0 0 
0 0 0 5.32356e-10 0 0 0 0 0 
0 0 0 0 0 0 0 0 0 
0 0 0 0 0 2.2683e-08 6.80343e-06 0 0 
7.00182e-06 0 0 0 0 0 0 0 0 
0 4.72632e-10 0 0 2.45906e-10 8.84615e-06 0 7.48828e-06 0 
0 0 0 0 4.27015e-10 0 0 0 1.16971e-08 
2.76213e-08 0 0 0 1.48167e-08 0 0 0 0 
0 0 0 0 0 5.71422e-10 0 0 5.46574e-10 
0 0 0 0 0 5.45191e-08 0 0 0 
0 0 0 1.05043e-10 0 0 0 6.8425e-06 0 
0 0 0 0 0 0 0 0 0 
0 8.17707e-06 0 0 0 6.91164e-06 0 0 6.88258e-06 
8.68848e-10 0 0 0 0 4.93426e-10 0 5.48143e-10 0 
0 0 0 0 7.20174e-10 5.76474e-10 0 0 0 
2.78337e-08 6.9788e-06 0 0 0 0 0 0 0 
0 0 0 0 0 0 0 0 0 
3.55067e-08 0 0 0 7.05624e-06 0 8.42058e-06 0 7.14783e-06 
0 0 0 0 0 0 0 0 0 
0 0 0 0 0 0 0 0 0 
0 0 0 0 0 0 0 0 0 
0 0 0 0 0 4.4502e-10 0 0 0 
0 0 0 0 0 6.79368e-06 2.30715e-08 0 0 
6.28385e-08 0 4.2829e-08 0 0 0 0 3.10932e-08 6.87189e-06 
0 0 0 0 0 0 8.38465e-10 0 0 
0 0 0 0 0 0 0 0 0 
0 0 0 0 0 0 0 0 0 
0 0 0 0 3.29919e-10 0 0 0 0 
0 0 0 0 0 0 0 0 0 
0 0 0 0 0 0 0 0 0 
0 0 0 0 0 0 0 0 0 
0 0 0 0 0 0 0 0 0 
0 0 0 0 0 0 0 0 0 
0 0 0 0 0 0 1.95575e-08 0 0 
0 1.28675e-10 0 0 0 0 0 0 0 
0 0 0 0 0 0 0 0 0 
0 0 0 0 0 0 0 4.69168e-10 0 
0 0 0 0 0 0 0 0 0 
0 0 0 0 0 0 0 0 0 
0 0 0 0 0 0 0 0 0 
0 0 0 0 0 6.6775e-09 0 4.99803e-10 0 
0 0 0 0 0 0 0 0 0 
0 0 0 0 0 0 0 0 0 
0 0 0 0 0 0 0 0 0 
0 0 0 0 0 0 0 0 0 
0 0 0 0 0 0 0 0 0 
0 0 0 3.92127e-10 0 0 0 0 0 
0 0 0 0 0 0 0 0 0 
0 0 0 0 0 0 0 0 0 
0 0 0 0 0 0 0 0 0 
0 0 0 0 0 0 5.32179e-10 0 7.33095e-10 
0 0 0 0 0 0 0 0 0 
0 0 0 0 0 0 0 0 0 
0 0 0 0 0 3.37206e-10 0 0 0 
0 5.11768e-11 0 0 0 0 0 0 0 
0 0 0 1.84365e-10 0 0 0 0 0 
0 0 0 0 0 0 0 0 0 
0 0 0 0 0 0 0 0 0 
0 0 0 0 0 0 0 0 0 
0 0 0 0 0 3.22597e-10 0 0 0 
0 0 0 0 0 0 0 0 3.6043e-10 
0 0 0 0 0 0 0 0 0 
0 0 0 0 0 0 0 0 0 
0 0 0 0 0 0 0 
feature_2 1 2500 float
0 0 0 0 0 0 0 0 0 
0 0 0 0 0 0 0 0 0 
0 0 0 0 0 0 0 0 0 
0 0 0 0 0 0 0 0 0 
0 0 0 0 0 0 0 0 0 
0 0 0 6.31353e-10 0 0 0 0 0 
0 0 0 0 0 8.54037e-10 7.363e-12 0 0 
0 0 0 0 0 0 0 0 0 
0 0 0 0 0 0 0 0 0 
0 0 0 0 0 0 8.00782e-11 0 0 
0 0 0 0 0 0 0 0 0 
2.68927e-08 0 0 0 0 0 0 0 0 
0 0 0 0 0 0 0 0 0 
0 0 0 0 0 0 0 0 0 
0 0 0 0 0 0 0 0 0 
5.0461e-10 0 0 0 0 0 0 0 0 
0 0 0 0 0 0 0 0 0 
0 0 0 0 0 0 0 0 0 
0 0 0 0 0 0 0 0 0 
0 0 0 0 0 0 0 0 0 
0 0 3.1888e-10 0 0 0 0 0 0 
0 3.09402e-10 0 0 0 0 0 6.04402e-10 0 
0 0 0 0 0 0 0 0 0 
0 0 0 0 0 0 0 0 0 
0 0 0 0 0 0 0 0 0 
0 0 2.78384e-10 4.30811e-10 0 0 0 0 0 
0 6.76145e-10 0 0 0 0 0 0 0 
0 0 1.41966e-08 0 0 0 0 0 0 
0 0 0 0 0 0 0 0 0 
0 0 0 0 6.14953e-10 0 0 0 0 
0 0 0 0 0 0 0 0 0 
0 0 8.88637e-10 0 0 3.41061e-13 0 0 0 
0 0 0 0 0 0 0 0 0 
0 0 0 0 0 0 0 0 0 
0 0 0 0 0 0 0 0 0 
0 0 0 0 0 0 0 1.57428e-10 0 
0 0 0 0 0 0 0 0 0 
0 0 1.10137e-08 0 0 0 0 0 0 
0 0 0 0 0 0 0 0 0 
0 0 0 0 0 0 0 0 0 
0 0 0 0 0 0 0 0 0 
0 0 0 0 0 0 0 0 0 
0 0 0 0 0 2.4194e-12 0 0 0 
0 0 0 0 0 0 2.91113e-10 1.83544e-10 0 
0 0 0 0 0 0 1.74056e-08 0 0 
0 0 0 9.50415e-08 0 0 4.06745e-10 0 0 
0 0 0 0 0 0 0 0 0 
0 0 0 0 0 0 0 0 0 
0 0 0 0 0 0 0 0 0 
0 0 0 0 0 0 0 0 0 
0 0 0 0 0 0 0 0 0 
0 0 0 0 0 0 0 0 0 
0 0 0 0 0 0 0 0 0 
0 0 0 0 0 0 0 0 0 
0 0 0 0 0 0 0 0 0 
0 0 4.14751e-10 0 0 0 0 0 0 
0 0 0 0 0 0 0 0 0 
0 0 0 0 0 0 0 9.34985e-10 0 
0 0 0 0 0 0 0 0 0 
0 0 0 0 0 0 0 0 0 
0 0 0 0 0 0 0 0 0 
0 0 0 0 0 0 0 0 0 
6.83499e-10 0 0 0 0 0 0 0 0 
0 0 0 0 0 0 0 0 0 
0 0 0 0 0 0 0 0 0 
0 0 8.49205e-10 0 0 0 0 0 0 
0 0 0 0 0 0 0 0 0 
0 0 0 0 0 0 0 1.65829e-10 2.30038e-11 
0 0 0 0 0 0 0 0 0 
0 0 0 0 0 0 0 0 0 
0 0 0 0 0 0 0 0 0 
0 0 0 0 0 0 0 0 0 
0 0 0 0 0 0 0 0 0 
0 0 0 0 0 0 0 3.77739e-10 0 
2.15172e-10 6.85151e-10 0 0 0 4.10393e-10 0 0 0 
0 0 6.42547e-10 0 0 0 0 0 0 
0 0 0 0 0 0 0 0 0 
0 0 0 8.50346e-10 0 0 0 0 0 
0 0 0 0 0 0 1.23127e-09 0 3.59513e-10 
0 0 0 0 0 0 0 0 0 
0 0 2.08917e-10 0 0 0 0 0 0 
0 0 0 0 0 0 0 0 6.11287e-10 
0 0 0 0 0 0 0 0 0 
0 0 0 0 0 0 0 0 0 
2.41663e-10 0 0 0 0 0 0 6.81922e-07 3.24149e-07 
0 0 0 0 0 0 0 0 0 
0 0 0 0 0 0 0 0 0 
0 0 0 0 6.67555e-11 0 0 0 0 
0 0 0 0 0 0 0 0 0 
0 0 0 0 0 0 0 0 0 
0 0 0 1.19744e-07 0 0 0 0 0 
0 0 0 0 0 0 0 0 0 
0 0 0 0 0 0 0 0 0 
0 0 0 0 0 0 0 2.46061e-10 0 
0 0 0 5.48335e-10 0 0 0 0 0 
0 0 0 4.63652e-10 0 0 0 0 0 
0 0 0 0 0 0 0 0 2.12967e-11 
0 0 0 0 0 0 0 0 0 
0 0 0 0 0 0 3.99655e-10 0 0 
0 0 0 0 0 0 0 0 0 
0 0 0 0 0 7.83142e-10 0 0 0 
0 0 7.23016e-10 0 0 0 6.77268e-10 0 0 
0 0 0 0 0 0 0 0 0 
0 7.0397e-10 2.37403e-10 0 6.87333e-10 0 0 0 0 
0 0 0 0 0 3.54323e-10 0 0 0 
0 0 0 0 0 0 0 0 0 
0 0 0 4.68834e-10 0 0 0 0 0 
0 0 0 0 0 0 0 0 0 
0 0 0 0 0 0 0 0 0 
0 0 0 0 0 0 0 0 0 
0 0 0 0 0 0 0 0 0 
0 0 0 0 0 0 0 0 0 
0 0 0 0 0 0 0 0 0 
0 0 0 0 0 0 0 0 0 
0 0 0 1.34296e-10 0 0 0 0 0 
0 0 0 0 0 0 0 0 0 
0 0 0 0 0 4.5382e-10 0 0 0 
0 0 0 0 0 0 0 0 0 
0 0 0 0 0 0 0 0 0 
0 0 0 0 0 0 0 0 0 
0 0 0 0 0 0 0 0 0 
0 0 0 0 3.4141e-10 0 0 0 0 
0 0 0 0 0 0 0 0 0 
0 0 0 0 0 0 0 0 0 
0 0 0 0 4.36449e-10 0 0 0 0 
0 0 0 0 0 0 0 0 0 
0 0 0 0 0 0 0 0 0 
0 0 0 7.61219e-10 0 0 0 0 0 
0 0 0 0 0 0 0 0 0 
0 0 0 0 0 0 0 7.63325e-10 0 
0 0 0 0 0 0 0 0 0 
0 0 0 0 0 0 0 0 0 
0 0 0 0 0 0 0 7.23851e-10 0 
0 0 0 0 2.45171e-10 0 0 0 0 
0 0 0 0 0 0 0 1.87642e-09 0 
0 0 0 0 0 0 0 0 0 
0 0 0 0 0 0 0 0 0 
0 0 0 0 0 0 0 0 6.96463e-10 
0 0 0 0 0 0 0 0 0 
0 0 0 0 0 1.22245e-10 0 0 0 
0 0 0 0 0 0 0 0 0 
0 0 0 0 5.16682e-10 0 0 0 2.28809e-10 
0 0 0 0 0 0 0 0 0 
0 0 0 0 0 0 0 0 0 
0 0 0 0 0 0 0 0 0 
0 0 0 0 0 0 0 0 0 
0 2.24843e-08 0 7.45938e-10 0 0 2.97263e-10 0 0 
0 0 0 0 0 0 0 0 0 
0 0 0 0 0 0 0 0 0 
0 0 0 6.95753e-10 0 0 0 0 0 
0 0 0 0 0 0 0 0 0 
0 0 0 0 0 0 0 4.46025e-11 0 
0 0 0 0 0 1.81124e-08 0 0 0 
0 0 0 0 0 0 0 0 0 
0 0 0 6.39698e-10 0 0 0 9.65059e-11 1.21666e-08 
0 0 0 0 0 0 0 0 0 
0 0 0 0 0 0 0 0 0 
0 0 0 0 0 0 0 0 0 
0 0 0 0 0 0 0 0 0 
0 0 0 0 0 0 0 0 0 
0 0 0 0 0 0 0 0 0 
0 0 0 0 0 0 0 0 0 
6.5555e-10 0 0 0 0 0 0 0 0 
0 0 0 0 0 0 0 0 0 
0 0 0 0 0 0 0 0 0 
0 5.8272e-10 0 0 0 0 0 0 0 
0 0 0 0 0 0 0 0 0 
0 0 0 0 0 0 0 0 0 
0 0 0 0 0 0 0 0 0 
0 0 0 0 0 0 0 0 2.73559e-10 
0 0 0 0 0 0 0 0 0 
0 0 0 0 0 8.75254e-10 0 0 0 
0 0 0 0 0 0 0 4.98957e-10 0 
0 0 0 0 0 0 0 0 0 
0 0 4.51752e-10 0 0 0 0 0 0 
0 0 0 0 0 0 0 0 0 
0 0 0 0 0 0 0 0 0 
0 0 0 0 0 0 0 0 0 
0 0 0 0 0 0 0 0 0 
0 0 0 0 0 0 0 6.10491e-10 1.10987e-10 
0 0 0 2.43666e-10 0 0 0 0 0 
0 0 0 0 0 0 0 0 0 
0 0 0 0 0 0 0 0 6.32081e-10 
0 0 2.16163e-10 6.17842e-10 0 8.69392e-10 0 0 0 
0 0 0 0 0 0 0 0 0 
0 0 3.8251e-10 0 0 0 0 0 0 
0 0 0 0 0 0 0 0 0 
0 0 0 0 0 0 0 0 0 
0 0 0 0 0 0 0 0 0 
0 0 0 0 0 0 0 0 0 
0 0 0 0 0 0 0 0 0 
3.55634e-10 0 0 0 0 0 0 0 0 
5.80659e-10 0 0 0 8.24514e-11 0 0 0 0 
0 0 0 0 0 0 0 0 0 
0 0 0 0 0 0 0 0 0 
0 0 0 0 0 0 0 0 0 
0 0 0 0 0 0 0 0 0 
2.17666e-10 0 0 0 0 8.11365e-10 0 0 0 
0 0 0 0 0 0 6.67772e-10 5.45896e-10 0 
0 0 0 0 0 0 0 0 0 
0 4.97076e-10 0 0 0 0 0 0 0 
0 2.68905e-11 0 0 0 0 0 0 0 
0 7.07455e-10 0 0 0 0 0 0 0 
0 0 0 0 0 0 0 0 0 
0 0 0 0 0 0 0 0 0 
4.19885e-10 0 0 0 0 0 0 0 0 
0 4.29825e-10 0 0 0 0 0 0 0 
0 0 0 0 0 0 0 0 0 
0 0 0 5.47566e-10 0 0 0 0 0 
0 0 0 0 0 0 0 0 0 
0 0 0 0 0 0 0 0 0 
1.1757e-09 0 0 0 0 0 0 0 0 
0 0 0 0 0 0 0 0 0 
0 0 0 0 0 0 0 0 0 
7.17986e-10 1.82592e-10 0 0 0 0 0 0 0 
0 0 0 0 0 0 0 0 0 
0 0 0 3.32606e-08 0 0 0 0 1.33897e-08 
0 0 0 0 0 0 0 0 0 
1.45881e-09 0 0 0 0 0 0 0 0 
0 0 0 0 0 0 0 0 6.46345e-10 
0 0 0 0 0 0 0 0 0 
0 0 0 0 0 0 0 0 0 
0 0 0 0 0 0 0 0 0 
0 0 0 0 0 0 0 0 0 
0 0 0 0 0 0 0 0 7.22601e-10 
7.35522e-10 0 0 0 0 0 0 0 0 
0 0 0 0 0 0 0 0 0 
0 7.40549e-10 0 2.26801e-09 1.83262e-08 0 0 0 0 
0 0 0 5.40002e-10 0 0 0 0 0 
0 0 0 0 0 0 0 0 4.82846e-10 
0 0 1.13619e-08 0 0 0 0 0 0 
0 0 0 0 0 0 0 0 0 
0 0 0 0 0 2.44945e-10 0 0 0 
0 0 0 0 0 0 0 0 2.36088e-08 
0 0 0 0 0 0 0 0 0 
0 0 0 0 2.63523e-10 0 0 0 0 
0 0 0 0 0 0 0 0 0 
0 0 0 0 0 0 0 0 0 
0 0 0 3.57169e-10 0 0 0 5.17812e-10 0 
0 0 0 0 0 0 0 0 0 
0 0 0 0 0 0 0 0 0 
0 0 0 0 0 3.78611e-10 0 0 0 
0 0 0 0 0 0 0 0 0 
0 1.09177e-09 0 0 0 0 0 0 0 
0 0 0 0 0 0 0 0 0 
0 0 0 0 0 0 0 0 0 
0 0 0 0 0 0 0 0 0 
0 0 0 2.2558e-10 0 0 0 0 0 
0 0 0 3.29782e-09 0 0 0 3.62199e-11 0 
0 0 0 0 0 0 0 0 0 
0 0 0 0 0 0 0 1.67903e-08 0 
0 0 0 0 0 0 0 0 0 
0 0 0 0 0 0 0 0 0 
0 0 0 0 0 0 0 0 0 
0 0 0 0 0 0 2.24571e-10 0 0 
0 0 0 0 0 0 0 0 0 
0 0 0 4.1484e-10 0 0 0 0 0 
0 0 0 0 0 0 0 0 0 
0 0 0 0 0 0 0 6.49841e-10 0 
0 0 0 0 0 0 0 0 0 
0 4.20986e-10 0 0 0 0 0 0 0 
0 0 3.46674e-10 4.33307e-10 0 0 0 0 0 
0 0 1.96374e-10 0 2.86119e-08 0 0 0 0 
0 0 0 0 0 0 0 0 0 
0 0 0 0 0 0 0 0 0 
0 0 0 0 0 0 0 2.56975e-10 0 
0 0 0 2.12105e-09 0 0 0 0 0 
0 0 0 0 0 0 0 2.16243e-10 0 
0 0 1.31353e-11 0 0 0 0 0 0 
0 0 2.17696e-09 0 0 0 0 0 2.13126e-08 
0 0 0 0 9.55964e-11 0 0 0 0 
0 0 0 0 0 0 0 0 0 
2.17511e-10 0 0 0 0 0 0 0 0 
0 0 0 0 0 0 0 0 0 
0 0 0 0 0 0 0 0 0 
2.14126e-10 0 0 0 5.18934e-10 0 0 0 0 
0 3.35417e-10 0 0 0 0 0 0 0 
0 0 0 0 0 0 0 
feature_3 1 2500 float
0 0 0 0 0 0 0 0 0 
0 0 0 0 0 0 0 0 0 
0 0 0 0 0 0 0 0 1.63684e-10 
0 0 0 0 0 0 0 0 0 
0 0 0 0 0 0 0 0 0 
0 0 0 0 0 5.6988e-10 0 0 0 
0 0 0 0 0 0 0 0 0 
7.62903e-10 0 0 0 0 0 0 0 0 
0 0 0 0 0 0 0 0 0 
0 0 0 0 0 0 0 0 0 
0 0 0 0 0 0 0 0 0 
0 0 0 0 0 0 0 0 0 
0 0 0 0 0 0 0 6.51735e-10 0 
0 0 0 5.59915e-10 0 0 7.92785e-10 0 0 
0 0 0 0 0 0 0 0 0 
0 0 0 7.84972e-10 0 0 0 0 0 
0 0 0 0 0 0 0 0 0 
0 0 0 0 0 0 0 0 0 
0 0 0 0 9.16543e-09 0 0 0 1.67866e-12 
0 0 0 0 0 0 0 0 0 
0 0 0 0 0 0 0 0 0 
0 0 0 0 0 0 0 0 0 
0 4.353e-10 0 0 0 0 0 0 0 
0 0 0 0 0 0 0 0 0 
0 0 0 0 0 0 0 0 0 
0 0 0 0 0 0 0 0 0 
4.66969e-11 0 0 0 0 0 0 0 1.60618e-11 
4.00934e-10 0 0 0 0 0 9.36993e-11 0 0 
0 0 0 0 0 0 0 0 0 
0 0 0 0 0 0 0 0 0 
0 0 0 0 0 0 0 0 8.17362e-10 
0 0 0 0 0 0 0 0 0 
0 0 0 0 0 0 0 0 0 
0 0 0 0 0 0 0 0 0 
0 0 0 0 0 0 0 0 0 
0 0 0 0 0 0 0 0 0 
0 0 0 0 3.65553e-10 0 0 0 0 
0 0 0 0 0 0 0 0 0 
0 0 0 0 0 0 0 0 0 
0 0 0 0 4.13124e-10 0 0 0 0 
0 0 0 0 0 0 0 0 0 
0 0 0 0 0 0 0 0 0 
0 0 0 0 0 0 0 0 0 
0 0 0 0 0 0 0 0 0 
0 0 0 8.42775e-10 0 0 0 0 4.00792e-10 
0 0 0 0 0 0 0 0 0 
0 0 0 0 0 0 0 0 0 
2.18261e-10 0 0 0 0 0 0 0 0 
0 0 8.20073e-11 0 0 0 0 0 0 
0 0 0 0 0 0 0 0 0 
3.00179e-10 0 0 0 0 0 0 0 0 
0 0 0 0 0 0 0 0 0 
0 0 0 0 0 0 0 0 4.22027e-11 
0 0 0 0 0 0 0 0 0 
0 0 0 0 0 0 0 0 0 
0 0 0 0 0 0 0 0 0 
0 0 0 0 0 0 0 0 0 
0 0 0 0 0 0 0 0 0 
0 0 0 0 0 0 0 0 0 
0 0 0 0 0 0 0 0 0 
0 0 0 0 9.51466e-10 0 0 5.11809e-10 0 
0 0 0 0 0 0 0 0 0 
0 0 0 0 0 0 0 0 0 
0 0 0 0 0 0 0 0 0 
0 0 0 0 0 0 0 0 0 
0 0 0 0 0 0 0 0 0 
0 0 0 0 0 0 0 0 0 
0 0 0 0 0 0 0 0 0 
0 0 0 0 0 0 1.06652e-10 0 0 
0 0 0 0 0 0 0 0 0 
0 0 0 0 0 0 0 0 0 
0 0 0 0 0 0 0 0 0 
0 0 0 5.74953e-10 0 0 0 0 0 
0 0 0 0 0 0 0 0 0 
5.19893e-10 0 0 0 0 0 0 0 0 
0 0 0 0 0 0 0 0 0 
0 0 0 0 0 0 7.16291e-10 0 0 
0 0 0 0 0 0 0 8.53852e-10 0 
0 0 0 0 0 0 0 0 0 
8.85706e-10 0 0 0 0 0 0 0 0 
0 0 0 0 0 2.90068e-10 0 0 0 
0 0 0 0 0 0 4.00746e-12 0 0 
0 0 0 0 2.16808e-10 0 0 0 0 
0 0 0 0 0 0 0 0 0 
0 0 0 0 0 0 0 0 0 
0 0 0 9.13296e-10 0 0 0 0 0 
0 0 0 0 0 0 0 0 0 
0 0 0 0 0 0 0 0 0 
4.4756e-10 0 0 0 0 0 0 0 0 
0 0 0 0 0 0 0 0 0 
0 0 0 0 0 0 0 0 0 
0 0 0 0 0 0 0 0 0 
0 0 0 0 0 0 0 0 0 
0 0 0 0 0 0 0 0 2.03954e-10 
0 6.38387e-10 0 0 0 0 0 0 2.72539e-10 
0 0 0 0 0 0 0 0 0 
0 0 0 0 0 0 0 0 0 
0 0 0 0 0 0 0 0 0 
0 0 0 0 1.02022e-07 0 0 0 0 
0 0 0 0 0 0 0 0 0 
0 0 0 0 0 0 0 0 0 
0 0 0 0 0 0 0 0 0 
0 0 4.51504e-10 0 0 0 3.2102e-10 0 0 
0 0 0 0 0 0 0 0 0 
0 0 0 0 0 0 0 0 0 
0 5.72491e-10 0 0 0 0 0 0 0 
3.91019e-10 1.72662e-12 0 0 0 0 0 0 0 
0 0 0 0 0 0 0 0 0 
0 0 0 0 0 2.25931e-10 0 0 0 
0 0 0 0 0 0 0 0 0 
0 0 0 0 0 0 0 0 0 
5.92681e-10 0 0 0 0 4.79481e-10 0 0 0 
0 0 0 0 0 0 0 0 0 
0 0 0 0 0 0 0 0 0 
0 0 0 0 0 0 0 0 0 
0 0 0 0 0 0 0 0 0 
0 0 0 0 0 0 0 0 0 
5.90671e-10 0 0 0 0 0 0 0 0 
0 0 0 0 0 0 0 0 0 
0 0 0 0 0 0 0 0 0 
0 0 0 0 0 0 0 0 0 
0 0 0 0 0 0 6.56499e-10 6.58954e-10 0 
0 0 2.95721e-08 0 0 0 0 0 0 
0 0 0 0 0 0 1.71649e-10 0 0 
0 0 0 0 2.17497e-09 0 0 0 0 
0 0 5.79975e-09 0 0 0 0 0 0 
0 0 0 0 0 0 0 0 0 
0 0 0 0 0 0 0 0 7.80275e-10 
0 4.91262e-10 0 0 0 0 0 0 0 
0 0 0 0 0 0 0 0 5.29827e-10 
0 0 0 0 0 0 0 0 0 
0 0 0 0 0 0 0 0 0 
0 0 0 0 0 0 0 0 0 
0 0 0 0 0 0 0 0 0 
0 0 0 0 0 0 0 0 0 
0 0 0 0 0 0 0 0 0 
0 0 0 0 0 0 0 0 0 
0 0 0 0 0 0 0 0 0 
0 0 0 0 0 0 0 0 5.08516e-10 
0 0 0 0 0 0 0 0 0 
0 0 0 0 0 0 0 0 0 
0 0 0 0 0 0 0 0 0 
7.9563e-11 0 0 0 0 0 0 0 0 
0 0 0 0 0 0 0 0 0 
0 0 0 0 6.69843e-10 1.96654e-08 0 0 2.24519e-08 
0 0 0 0 0 0 0 1.75586e-10 0 
0 1.598e-08 0 0 0 0 0 0 0 
0 6.30369e-10 0 0 0 0 0 0 0 
0 0 0 0 0 0 0 0 0 
0 0 0 0 0 0 0 0 0 
0 0 0 0 0 0 0 0 2.95667e-10 
0 0 0 0 0 1.64999e-10 0 0 0 
0 0 0 0 0 0 0 0 0 
0 0 0 0 0 1.02739e-10 0 0 0 
0 0 0 0 0 0 0 0 0 
0 5.64437e-10 0 0 0 0 0 0 0 
0 0 0 0 0 0 0 0 0 
0 0 0 0 0 0 0 0 5.45377e-11 
0 0 0 0 0 0 0 0 0 
0 0 0 0 0 0 0 0 0 
0 0 0 0 0 0 0 1.10475e-10 0 
0 0 0 0 0 0 0 0 0 
0 0 4.993e-10 0 0 0 2.35101e-12 0 0 
0 0 0 0 0 0 0 0 0 
0 0 0 0 0 0 0 0 0 
0 0 0 0 0 0 0 0 0 
0 0 0 0 0 0 0 0 0 
0 0 0 0 0 0 0 5.56383e-10 0 
0 0 0 0 0 0 0 0 0 
0 0 0 0 0 0 0 0 0 
0 0 0 0 0 0 0 0 0 
0 0 0 0 0 0 0 0 0 
0 1.8452e-10 0 0 0 0 0 0 0 
0 0 0 5.55318e-10 0 0 0 0 0 
0 0 0 0 0 0 0 0 0 
0 0 0 0 0 0 0 0 0 
0 0 0 0 0 0 0 0 0 
0 0 0 0 0 0 0 0 0 
0 0 0 0 6.33484e-11 0 0 0 0 
0 1.13847e-11 0 0 0 0 0 0 0 
0 0 0 0 2.83317e-10 6.24912e-10 0 0 0 
0 0 0 0 0 0 0 8.31903e-11 0 
0 0 0 0 0 1.30157e-10 0 0 0 
0 0 0 0 0 0 0 0 0 
0 0 0 0 0 0 0 0 0 
4.89397e-10 0 5.48898e-10 0 0 0 0 0 0 
0 3.02252e-10 0 0 0 0 0 0 0 
0 0 0 0 0 0 0 0 0 
0 0 0 3.0521e-10 0 4.92939e-12 0 0 0 
0 0 0 0 0 0 0 0 0 
0 0 0 0 0 0 0 2.91728e-10 0 
0 0 0 0 0 0 0 0 0 
0 0 0 2.82745e-10 0 0 0 0 0 
0 0 0 0 0 0 0 0 0 
0 0 0 0 0 0 0 0 0 
0 0 0 0 1.01558e-09 0 0 0 0 
0 0 0 0 0 0 0 7.22455e-10 0 
0 0 5.68363e-10 0 0 0 0 0 0 
2.81573e-08 0 0 0 0 0 0 0 0 
0 0 0 4.64098e-10 0 0 0 0 0 
1.52275e-08 0 0 0 0 0 0 0 0 
0 0 0 0 0 0 0 0 0 
0 0 0 5.11999e-11 0 0 0 0 6.11625e-10 
0 0 0 0 0 0 0 0 0 
0 0 0 0 0 0 0 0 0 
0 0 0 0 0 0 0 0 0 
0 0 0 0 0 1.23499e-10 0 0 0 
0 0 0 0 0 0 0 0 0 
0 0 0 0 0 0 0 0 0 
0 0 0 0 0 0 0 0 0 
0 0 0 0 0 0 0 0 0 
0 0 0 0 0 0 0 0 0 
0 0 0 0 0 0 0 0 0 
0 0 0 0 0 0 0 0 0 
0 0 0 0 0 0 0 0 0 
0 0 0 0 0 6.88967e-10 0 0 0 
0 0 0 0 0 0 0 0 0 
0 0 0 0 0 2.8742e-10 0 0 0 
0 0 0 0 0 1.28392e-10 0 0 0 
0 0 0 0 0 0 0 0 0 
0 0 0 0 0 0 0 0 0 
0 0 0 0 0 0 0 6.71005e-10 0 
0 0 0 4.15543e-10 0 0 0 0 0 
0 0 0 0 0 0 0 0 0 
0 0 0 0 0 0 0 0 0 
0 0 0 0 0 0 0 0 9.62572e-10 
0 0 0 0 0 0 0 0 0 
0 0 0 0 0 0 0 0 0 
0 0 0 0 0 0 0 0 0 
3.06493e-11 0 0 0 0 0 0 0 0 
0 3.20981e-10 0 0 0 3.97389e-10 0 0 0 
0 0 0 0 0 0 0 0 0 
2.84004e-10 0 0 0 0 3.6696e-10 0 0 0 
0 0 0 0 0 0 0 0 0 
0 0 0 0 0 0 0 0 0 
0 0 0 0 0 0 0 0 0 
0 0 0 0 0 0 0 0 0 
0 0 0 0 0 0 0 0 0 
0 0 0 0 0 0 0 0 0 
0 7.93218e-10 0 0 0 0 0 0 0 
0 0 0 0 0 0 0 5.49793e-10 0 
0 5.03846e-11 0 0 0 0 0 0 4.08072e-10 
0 0 0 0 0 0 0 0 0 
0 0 0 0 0 0 0 0 0 
0 0 0 0 0 0 0 0 0 
0 0 0 0 0 0 0 0 4.8065e-10 
0 0 0 0 0 0 0 0 0 
0 0 4.8129e-10 0 0 0 0 0 0 
0 0 0 0 0 0 0 0 0 
0 0 0 0 0 0 0 0 0 
1.36874e-08 0 0 0 0 0 0 0 0 
0 0 0 0 0 0 0 0 0 
0 0 0 0 0 0 0 0 0 
0 0 0 0 0 0 0 2.04672e-11 0 
0 0 0 0 0 0 0 0 0 
0 0 0 0 0 0 0 0 0 
0 0 0 0 0 0 0 0 0 
0 0 8.12786e-10 0 0 0 0 0 0 
0 0 0 0 0 0 0 0 0 
0 0 0 0 0 0 0 0 0 
0 0 0 0 0 0 0 0 0 
0 0 0 0 0 0 0 0 0 
0 0 0 0 0 0 0 0 2.5209e-10 
0 0 5.77366e-10 0 0 0 0 0 0 
0 0 0 0 0 0 0 0 0 
0 0 0 0 0 0 0 0 0 
0 0 0 0 0 0 0 0 0 
0 0 0 0 0 0 0 0 0 
0 0 0 0 0 0 0 0 0 
0 0 0 0 0 0 0 0 0 
3.67766e-10 0 0 0 0 0 0 0 0 
0 0 3.40755e-10 0 0 0 0 0 0 
0 5.47537e-10 0 0 0 0 0 0 0 
0 0 0 0 0 0 0 0 0 
0 0 0 0 0 0 0 5.27294e-10 0 
0 2.13964e-08 4.78124e-10 0 0 2.50363e-10 0 0 0 
0 0 0 0 0 0 0 0 0 
0 0 0 0 0 0 0 
feature_4 1 2500 float
0 0 0 0 0 0 0 0 0 
0 5.69692e-10 0 5.78567e-10 0 0 0 0 0 
0 0 0 4.70042e-10 0 0 5.93577e-10 0 0 
0 0 0 0 0 0 0 0 0 
0 0 0 0 0 0 0 0 0 
0 0 0 0 0 0 1.97296e-10 0 0 
0 0 0 0 0 0 0 0 0 
0 0 0 0 0 0 0 0 0 
0 0 0 0 0 0 0 0 0 
0 0 0 0 0 0 0 0 0 
0 0 0 0 0 0 0 0 0 
0 0 6.9112e-10 0 0 0 0 0 0 
0 0 0 0 0 0 0 0 0 
0 0 0 0 0 0 0 0 0 
0 2.24478e-10 0 0 0 0 0 0 5.31966e-10 
0 0 0 0 0 0 0 0 0 
0 4.92523e-10 0 0 0 4.79794e-10 4.72127e-10 0 0 
0 0 0 0 0 0 0 0 0 
0 0 0 0 0 0 0 0 0 
0 0 0 0 0 0 0 0 0 
0 0 0 0 0 1.82432e-10 0 0 0 
0 0 0 0 0 0 0 0 2.01851e-10 
0 0 0 0 0 0 0 0 0 
0 0 0 0 0 0 0 0 0 
0 0 0 0 0 0 0 0 0 
0 0 0 0 0 0 0 0 0 
0 0 0 0 0 0 0 0 0 
1.62139e-10 0 0 0 0 0 0 0 0 
0 0 0 0 0 0 0 0 0 
0 0 0 0 0 0 0 0 0 
0 0 0 0 0 0 0 0 0 
0 0 3.99865e-10 0 0 0 0 0 0 
0 0 0 0 0 0 0 0 0 
0 0 0 0 0 0 0 0 0 
0 0 0 0 0 0 0 0 0 
0 0 0 0 0 0 0 3.68178e-10 0 
0 0 0 0 0 0 0 0 0 
0 0 3.86962e-11 0 0 0 0 0 0 
0 0 5.41217e-10 0 0 0 0 0 0 
0 0 0 0 0 0 0 0 0 
0 0 0 0 0 0 0 0 0 
0 0 0 0 0 0 0 0 0 
0 0 0 0 0 0 0 0 0 
0 1.7481e-10 0 0 0 0 0 0 0 
0 0 0 0 0 0 4.11038e-10 0 0 
0 0 0 0 0 0 0 0 0 
0 0 0 0 0 0 0 0 0 
0 0 0 0 0 0 0 0 4.94634e-10 
0 0 0 0 8.28521e-10 0 0 0 0 
0 0 0 0 0 0 0 0 0 
0 0 0 0 0 0 0 0 0 
0 0 0 3.08376e-10 0 0 0 0 0 
0 0 0 0 0 0 0 0 0 
0 0 0 3.84333e-10 0 0 0 0 0 
0 0 0 0 0 0 0 0 0 
0 0 0 0 0 0 0 0 0 
0 0 0 0 0 1.63304e-10 0 0 0 
0 0 0 0 0 0 0 0 0 
0 3.8343e-10 0 0 0 0 0 0 0 
0 0 0 3.15122e-10 0 0 0 0 0 
0 0 0 0 0 0 0 0 0 
0 0 0 0 0 0 0 0 0 
0 0 0 0 0 0 4.27807e-10 0 0 
0 0 0 0 0 0 0 0 0 
0 0 0 0 0 0 0 0 0 
0 0 0 0 0 0 0 0 0 
0 0 3.47633e-11 0 0 0 0 0 0 
0 0 3.21894e-10 0 0 0 0 0 0 
0 0 0 0 0 0 0 0 0 
0 0 0 0 0 0 0 0 0 
0 0 4.33538e-10 0 0 0 0 0 0 
0 0 0 0 0 0 0 0 0 
0 0 0 0 0 0 0 0 0 
0 0 0 0 0 0 0 0 0 
0 0 0 0 0 0 0 0 0 
0 0 0 0 0 0 0 0 0 
0 0 0 0 0 0 0 0 0 
0 0 0 0 0 0 0 0 0 
0 0 0 0 0 0 0 0 0 
0 0 0 0 0 0 0 0 0 
0 0 0 0 0 0 0 0 0 
0 0 0 0 0 0 0 4.11021e-10 3.63984e-10 
0 0 0 0 0 0 0 0 0 
0 0 0 0 0 0 0 0 0 
0 0 0 0 0 0 0 0 0 
0 0 0 0 0 0 0 0 0 
0 0 0 0 0 0 0 0 0 
0 0 0 0 0 0 0 0 0 
0 0 0 0 0 0 0 0 0 
0 0 0 0 0 0 0 0 0 
0 0 0 4.65423e-10 0 0 0 0 0 
0 0 0 0 0 0 0 0 0 
0 0 0 0 0 0 0 0 0 
0 0 0 0 0 0 0 0 0 
0 0 0 0 0 0 0 0 0 
0 0 0 0 0 0 0 0 0 
0 0 0 0 0 0 0 0 0 
0 0 0 0 0 0 0 0 0 
0 0 0 0 0 0 0 0 6.30678e-10 
0 0 0 0 0 0 0 0 0 
0 0 0 0 0 0 6.60567e-10 0 0 
0 0 0 0 0 0 0 0 0 
0 1.59131e-10 0 0 0 0 0 0 0 
7.68114e-10 0 0 0 0 0 0 0 0 
0 0 0 0 0 0 0 0 0 
0 0 0 0 0 0 0 0 0 
0 0 0 0 0 0 0 0 0 
0 0 3.67177e-10 0 0 0 0 0 7.49093e-10 
0 0 0 0 0 0 0 0 0 
0 0 1.58764e-10 0 0 0 0 0 0 
0 0 0 0 0 0 0 0 0 
0 0 0 5.85064e-10 0 0 0 0 0 
0 0 0 0 0 0 0 0 0 
0 0 0 0 0 0 0 0 0 
0 0 0 0 0 0 0 0 0 
0 0 0 0 0 0 0 0 0 
0 0 0 0 0 0 0 0 0 
0 0 0 0 0 0 0 0 0 
0 0 0 0 0 0 0 0 0 
0 0 0 0 0 0 7.01245e-10 8.20901e-10 0 
0 0 0 0 0 0 0 0 0 
0 0 0 0 0 0 0 3.80304e-10 0 
0 0 0 0 0 0 0 0 0 
0 0 0 0 0 0 0 0 0 
0 0 0 0 0 0 0 0 0 
0 0 0 0 0 0 0 0 0 
0 0 0 0 0 0 0 0 0 
0 0 0 0 0 0 0 0 0 
0 5.5552e-11 0 0 0 0 0 0 0 
0 0 0 0 0 0 0 0 0 
0 0 0 0 0 0 0 0 0 
0 0 0 0 0 0 0 0 0 
0 0 0 0 0 0 0 0 0 
0 0 0 0 0 0 0 0 0 
0 0 0 0 0 0 0 0 0 
0 0 0 0 0 0 0 3.84457e-10 0 
0 0 0 0 0 0 0 0 0 
0 0 0 0 0 0 0 0 0 
0 0 0 0 0 0 0 0 0 
0 0 0 0 0 0 0 0 0 
0 9.61663e-10 0 0 0 2.43162e-10 0 0 0 
0 0 0 0 0 0 0 0 0 
0 0 0 0 0 0 0 0 0 
0 3.14529e-10 0 0 0 0 0 2.50871e-10 0 
0 0 0 0 0 0 0 0 0 
0 0 0 0 0 0 0 0 0 
0 0 0 0 0 0 0 0 0 
0 0 0 0 0 0 3.44819e-10 0 0 
0 0 0 0 0 0 0 0 0 
0 0 0 0 0 0 0 0 6.00028e-10 
0 0 0 0 0 0 0 0 0 
0 0 0 8.01297e-10 0 0 0 0 0 
0 0 0 0 0 0 0 0 0 
0 0 0 0 0 0 0 0 0 
0 0 0 0 0 0 6.01634e-10 0 0 
0 0 0 0 0 0 0 9.14078e-11 0 
0 0 0 0 0 0 0 0 0 
0 0 0 7.1438e-10 6.69758e-11 0 0 0 0 
0 0 0 0 0 0 0 0 0 
0 0 0 0 0 0 0 0 0 
0 0 0 0 0 0 0 0 0 
0 0 0 0 0 0 0 0 0 
0 2.99035e-10 0 0 0 0 0 0 0 
0 0 0 0 0 0 0 0 0 
0 0 0 0 0 0 0 0 0 
0 0 0 0 0 0 0 0 0 
0 0 0 0 0 0 0 0 0 
0 0 0 0 0 0 0 0 0 
0 0 0 0 0 0 0 0 0 
0 0 0 0 0 0 0 0 0 
0 0 0 0 0 0 0 0 0 
0 6.1608e-10 0 0 0 0 5.08216e-10 0 0 
0 0 0 0 0 0 0 0 0 
0 0 0 0 0 0 0 0 0 
0 0 0 0 0 0 0 3.92056e-10 0 
0 6.35154e-10 0 0 0 0 5.80236e-10 0 0 
6.80565e-10 0 0 0 0 0 0 2.85835e-10 0 
0 0 0 0 0 0 0 0 0 
0 0 0 0 0 0 0 0 0 
0 0 0 0 0 0 0 0 0 
0 0 0 0 0 0 4.03799e-10 0 0 
0 0 0 0 0 0 0 0 0 
0 0 0 0 0 0 0 0 0 
0 0 0 0 0 0 0 0 0 
0 0 0 0 0 0 0 0 0 
0 0 0 0 0 0 0 0 0 
4.7673e-10 0 0 0 0 0 0 0 0 
0 0 0 0 0 0 0 0 0 
0 0 0 0 0 0 0 5.21155e-10 0 
0 0 0 0 0 0 0 0 0 
0 0 0 0 0 0 0 0 0 
0 0 0 0 0 5.02219e-10 0 0 0 
0 0 0 0 0 0 0 0 0 
0 0 0 0 7.1206e-10 0 3.5147e-10 0 0 
0 0 0 0 0 0 0 0 0 
0 0 0 0 0 0 0 0 0 
0 0 0 0 0 0 0 0 0 
0 0 0 0 0 0 0 0 0 
0 0 0 0 0 0 0 0 0 
0 0 0 0 0 0 0 0 0 
0 0 0 0 0 0 0 0 0 
0 0 0 0 0 0 0 0 0 
5.35739e-10 0 0 0 0 0 0 0 0 
0 0 0 1.92028e-10 0 0 0 0 0 
0 0 0 0 0 0 0 2.24667e-11 0 
0 0 0 0 0 0 0 0 0 
0 0 0 0 0 0 0 0 0 
0 0 0 0 0 0 0 0 0 
0 0 0 0 0 0 0 0 0 
7.68026e-10 0 2.84539e-10 2.97e-10 0 0 0 0 0 
0 0 0 0 0 0 0 0 0 
0 0 0 0 0 0 0 0 0 
0 0 0 1.20119e-10 0 0 0 0 0 
0 0 0 0 0 0 3.95229e-10 0 0 
0 0 0 0 0 0 0 0 0 
0 0 0 0 0 0 0 0 0 
0 0 0 0 0 0 0 0 0 
0 0 0 0 0 0 0 0 0 
0 0 0 0 0 0 0 0 0 
0 0 0 0 0 0 0 0 0 
0 0 0 0 0 0 0 0 0 
0 0 0 0 0 0 0 0 0 
0 0 0 0 0 0 0 0 0 
0 0 0 0 0 0 0 0 0 
0 0 1.64135e-10 0 0 0 0 0 0 
0 0 0 0 0 0 0 0 0 
0 0 0 0 0 0 0 0 0 
0 0 0 0 0 0 0 0 0 
3.09871e-10 0 0 0 0 0 0 4.79016e-10 0 
0 0 0 0 0 0 0 0 0 
0 0 0 0 0 0 0 0 0 
5.70815e-11 0 0 0 6.04569e-10 0 0 0 0 
0 0 0 0 0 0 0 0 0 
0 0 0 0 0 0 0 0 0 
0 0 0 0 0 0 0 0 0 
0 0 0 5.47599e-10 0 0 6.15923e-10 0 0 
0 0 0 1.01601e-10 0 0 0 0 0 
0 0 0 0 0 0 0 0 0 
0 0 0 0 0 5.91429e-11 0 0 0 
0 0 0 0 0 0 0 4.75751e-10 0 
0 0 0 1.9876e-10 0 0 0 0 0 
0 0 0 0 0 5.2675e-10 0 0 0 
0 0 0 0 0 0 0 0 0 
0 0 0 0 0 0 0 9.48528e-10 0 
0 0 0 0 0 0 0 0 0 
0 0 0 0 0 0 0 0 0 
0 0 4.54289e-10 0 0 0 0 0 0 
0 0 0 0 0 0 0 0 0 
0 0 0 0 0 0 0 0 0 
0 0 6.47319e-10 0 0 0 0 0 0 
0 0 0 0 0 0 0 0 0 
0 0 0 0 0 0 3.59687e-10 0 0 
0 0 0 0 0 5.51005e-10 0 0 0 
3.8369e-10 0 0 0 0 0 0 0 0 
0 0 0 0 7.08972e-10 0 0 0 0 
0 0 0 0 0 0 0 0 0 
0 0 0 0 0 0 0 0 0 
0 0 0 0 0 0 0 0 0 
0 3.02881e-10 0 3.9806e-10 0 0 0 0 0 
0 0 0 5.74719e-10 0 0 0 0 0 
0 0 0 0 0 0 0 0 0 
0 0 0 0 0 0 0 0 0 
0 0 3.66889e-10 0 0 0 0 0 0 
0 0 0 0 0 0 0 0 0 
0 0 0 0 0 0 0 0 0 
0 0 2.34176e-10 0 0 0 0 0 0 
0 0 0 0 0 0 0 0 0 
0 0 0 0 0 0 6.58048e-10 0 0 
0 0 0 0 0 0 0 7.59353e-10 0 
0 0 0 0 0 0 0 0 0 
0 0 0 0 0 0 0 0 0 
0 0 0 0 0 0 0 0 0 
0 0 0 0 0 4.19313e-10 0 0 0 
0 8.10708e-10 0 0 0 0 0 0 0 
0 0 0 0 0 0 0 0 0 
0 0 0 0 0 7.48869e-10 0 0 0 
0 0 0 0 0 0 0 0 0 
0 0 0 0 0 0 0 
feature_5 1 2500 float
0 0 0 0 0 0 0 0 0 
0 0 0 0 0 0 0 0 0 
0 0 0 0 0 0 0 0 0 
0 0 0 0 0 0 4.23174e-10 0 0 
9.24736e-11 0 0 0 0 4.62116e-10 0 0 0 
0 0 0 0 0 0 0 0 0 
0 6.86338e-10 0 0 0 0 0 0 0 
0 0 0 0 0 0 0 0 0 
0 0 0 0 0 0 0 0 0 
0 0 0 0 0 0 0 8.74305e-10 0 
0 0 4.48495e-10 0 0 0 0 0 0 
3.29551e-08 0 9.71479e-10 0 0 0 0 0 0 
0 0 1.38478e-10 0 1.2367e-10 0 0 0 0 
0 0 0 0 0 0 0 0 0 
0 0 0 0 0 0 0 0 0 
0 0 0 0 0 0 3.21531e-10 0 0 
0 0 0 0 0 0 0 0 4.11138e-10 
0 0 0 0 0 0 0 0 0 
0 0 0 0 0 0 0 0 0 
0 0 0 0 0 0 0 0 0 
0 0 0 0 0 0 3.65123e-10 0 0 
0 0 0 3.06439e-08 0 0 3.32903e-10 0 2.47857e-08 
0 0 1.63698e-10 4.55191e-10 0 0 0 0 0 
0 0 0 0 0 0 0 0 0 
0 0 1.41618e-08 0 0 0 0 0 0 
0 0 0 0 0 0 0 0 6.86846e-10 
0 0 0 0 0 0 0 0 0 
0 0 1.46623e-08 0 0 0 0 0 0 
0 0 0 0 0 0 0 2.60414e-10 0 
0 0 0 0 0 0 0 0 0 
0 0 0 0 0 0 0 0 0 
0 0 0 0 0 0 0 3.37508e-11 0 
0 0 0 0 6.99618e-10 0 0 0 0 
0 0 0 6.2033e-11 0 0 0 0 0 
0 0 0 0 0 0 0 0 0 
0 0 0 0 0 0 0 0 0 
0 0 0 0 0 0 0 0 0 
0 0 0 0 0 0 0 1.38437e-08 0 
0 0 0 5.7252e-10 0 0 0 0 0 
0 0 0 0 0 0 0 0 0 
0 2.69957e-10 0 0 0 0 0 0 0 
3.30761e-10 0 0 0 0 0 0 0 0 
0 0 0 0 0 0 0 0 0 
2.74225e-10 0 0 0 6.77357e-10 0 0 0 0 
0 0 0 0 0 0 1.84085e-08 0 0 
0 0 0 1.26849e-07 0 0 0 0 4.15016e-09 
0 0 0 7.5509e-10 0 0 0 0 0 
0 0 0 0 0 0 0 0 6.52076e-10 
0 0 0 0 0 0 0 0 0 
0 0 0 0 0 0 0 0 0 
0 0 0 0 0 0 0 0 0 
0 7.22881e-10 0 0 1.65226e-10 0 0 0 0 
0 0 0 0 0 0 0 0 0 
0 0 0 0 0 0 0 0 0 
0 0 0 0 0 0 0 0 0 
8.27676e-11 0 0 5.96486e-10 0 0 0 0 0 
2.30874e-08 0 0 0 0 0 0 0 0 
0 0 0 0 0 0 0 9.06414e-10 0 
0 2.80711e-10 0 0 0 0 0 0 5.02784e-10 
0 6.58282e-11 0 0 0 0 0 0 2.81196e-10 
0 0 0 0 0 0 0 1.85072e-08 0 
0 0 0 0 0 4.77396e-10 0 0 0 
0 0 0 0 0 0 0 0 0 
0 0 0 0 0 0 0 0 0 
0 0 0 0 0 0 0 0 0 
0 0 0 0 0 0 0 0 0 
0 0 0 0 0 0 0 0 0 
0 0 0 0 0 0 0 0 0 
0 0 0 0 0 0 0 0 0 
0 0 0 0 0 0 0 0 0 
0 0 0 0 0 0 0 0 0 
0 0 0 0 0 0 5.50664e-10 3.24473e-10 0 
0 0 0 0 0 0 0 0 0 
0 0 0 0 1.49324e-10 0 0 0 0 
0 0 0 7.31486e-10 0 0 4.87766e-10 0 0 
0 7.36797e-11 0 0 0 0 8.5533e-10 0 0 
0 0 0 0 0 0 0 0 0 
0 0 0 0 0 0 0 0 0 