# vtk DataFile Version 5.1
vtk output
ASCII
DATASET STRUCTURED_POINTS
DIMENSIONS 50 50 1
SPACING 1 1 1
ORIGIN 0 0 0
POINT_DATA 2500
FIELD FieldData 6
feature_1 1 2500 float
0 0 0 0 7.9476e-10 0 0 0 0 
0 0 0 0 0 0 0 0 0 
0 0 0 0 0 0 6.49365e-10 0 0 
0 0 0 0 0 0 0 0 0 
0 0 0 0 0 0 0 0 1.99794e-10 
0 0 0 0 0 0 0 0 0 
0 0 5.24103e-10 0 1.24003e-11 0 0 0 0 
0 0 0 0 0 0 8.74323e-11 0 0 
0 0 0 0 0 0 0 0 0 
0 0 0 0 0 0 0 0 0 
1.64242e-11 0 0 7.20497e-10 0 0 0 7.62334e-10 5.83729e-10 
0 0 0 0 0 0 0 0 0 
0 0 0 0 0 0 0 0 0 
0 0 0 0 0 0 0 0 0 
0 2.21614e-11 0 0 0 0 0 0 0 
0 0 0 0 0 0 0 0 0 
0 3.34465e-10 0 0 0 0 0 0 0 
0 0 3.77e-10 0 0 0 0 0 0 
0 0 0 0 0 0 0 0 0 
0 0 0 0 0 0 0 0 0 
0 0 0 0 0 0 0 0 0 
0 0 0 0 0 0 0 0 0 
0 0 0 0 0 0 0 0 0 
0 0 0 0 0 0 0 0 0 
0 0 0 0 0 0 0 4.34454e-10 1.87921e-10 
0 0 0 0 0 0 0 0 0 
0 0 0 0 0 0 0 0 0 
0 0 0 0 0 0 0 0 4.39567e-10 
0 0 0 0 0 0 0 0 0 
0 0 0 0 0 0 0 0 0 
0 0 0 0 0 0 0 0 0 
0 0 0 3.86418e-10 0 0 0 0 0 
0 0 0 0 0 0 0 0 0 
0 0 0 0 0 0 0 0 0 
0 6.59302e-10 0 0 0 0 0 0 0 
0 0 0 1.6583e-10 0 0 0 0 0 
0 0 0 0 0 0 0 0 0 
0 0 0 0 0 0 0 0 0 
0 0 0 0 0 0 0 0 0 
0 0 0 0 0 0 0 6.59103e-10 0 
0 0 0 0 0 0 0 0 2.72242e-08 
5.76954e-10 0 0 0 0 0 0 0 6.77252e-06 
5.11155e-08 0 0 0 0 0 0 0 0 
0 0 0 0 0 0 0 0 0 
0 0 0 0 0 0 0 0 0 
0 0 0 6.78035e-06 0 0 0 0 0 
0 0 0 0 6.79189e-06 0 0 0 0 
0 0 0 0 0 0 0 0 0 
0 4.55639e-10 0 0 0 0 0 0 0 
0 0 0 0 0 0 0 0 0 
0 0 0 0 0 0 0 0 0 
0 0 0 0 0 0 0 0 2.94929e-08 
0 0 0 0 0 0 0 0 0 
0 0 2.33494e-09 0 0 0 0 0 0 
0 0 0 0 0 0 0 0 0 
0 0 0 0 0 0 0 0 0 
9.25446e-11 0 0 0 0 0 0 0 0 
0 0 0 7.18691e-06 0 2.09639e-10 0 0 0 
0 0 0 0 0 0 0 0 0 
0 0 3.13198e-08 0 6.73094e-10 0 0 0 0 
6.87238e-06 0 0 0 0 5.2918e-10 0 0 0 
0 0 0 0 4.88239e-10 0 0 0 0 
0 0 7.19052e-06 0 0 7.02472e-06 0 7.35824e-06 4.84853e-10 
0 0 0 3.38058e-10 0 0 0 0 0 
0 0 0 0 0 0 8.09834e-06 8.39584e-06 0 
0 3.7562e-08 6.88826e-06 0 0 3.35441e-08 0 0 0 
0 0 0 0 0 0 0 0 0 
0 0 0 0 0 6.11548e-08 7.16822e-06 0 0 
0 0 0 0 0 0 0 0 0 
0 0 0 0 4.50768e-11 0 0 0 0 
0 1.05537e-09 0 0 7.25381e-06 0 0 3.48196e-08 0 
6.93529e-06 0 0 0 0 0 0 0 0 
0 0 0 3.5957e-10 0 0 0 0 0 
0 1.51503e-08 0 0 0 0 0 0 0 
0 0 0 0 0 0 0 0 6.80427e-06 
0 0 6.81052e-06 0 0 0 0 0 0 
0 5.04258e-10 0 0 0 0 0 0 0 
0 0 7.35611e-10 0 0 0 0 0 0 
0 0 0 0 0 2.94296e-10 0 0 0 
0 0 0 0 0 0 0 0 0 
0 0 0 0 2.23356e-08 0 0 5.32685e-08 0 
0 0 0 0 0 0 0 0 0 
0 0 0 0 0 0 0 0 0 
0 0 0 0 0 0 0 0 0 
0 0 0 0 0 6.91675e-06 0 2.5981e-07 7.38931e-06 
0 0 0 0 0 0 0 0 0 
0 0 0 0 0 0 0 6.8703e-06 6.5759e-08 
0 0 0 0 0 0 0 0 0 
0 0 0 0 0 0 0 0 1.02703e-09 
0 0 0 0 0 0 0 0 0 
0 4.75411e-08 0 7.63986e-06 0 0 0 0 0 
4.36859e-10 1.7024e-08 6.79933e-06 3.18614e-08 0 0 0 2.36717e-10 0 
0 0 0 0 5.73424e-08 0 0 0 0 
0 0 0 0 0 0 0 0 0 
0 0 0 0 0 0 0 0 0 
0 0 0 3.25879e-10 0 0 0 0 0 
7.45461e-06 0 0 7.31144e-09 0 1.1138e-09 0 0 0 
0 0 2.20864e-08 0 0 0 8.0489e-09 0 0 
0 0 0 0 6.12106e-07 0 0 0 0 
3.43345e-10 0 0 3.06656e-10 0 0 0 4.47361e-10 0 
4.34159e-10 0 0 7.71045e-10 0 0 0 0 0 
0 0 6.83912e-06 0 0 0 3.89603e-08 0 0 
0 0 0 0 0 0 0 0 6.97818e-06 
0 0 0 0 0 8.1084e-06 0 0 7.50095e-06 
0 7.56082e-06 0 0 0 0 2.99465e-10 0 0 
0 0 0 0 0 0 0 0 0 
0 0 0 0 0 0 0 0 0 
0 0 7.07955e-06 0 7.22909e-06 7.40652e-08 8.60326e-06 9.30469e-06 0 
0 0 0 4.90065e-08 0 0 0 0 0 
0 5.60788e-08 0 0 0 7.99605e-06 0 0 0 
0 0 0 0 0 0 0 0 0 
0 0 0 5.7592e-10 0 0 0 0 0 
0 0 0 0 0 0 0 0 0 
0 0 0 8.41381e-06 4.27268e-08 7.13374e-10 0 0 0 
0 0 0 0 0 0 0 0 7.41785e-06 
0 0 7.43911e-06 0 0 0 0 0 0 
0 0 0 0 0 0 0 0 0 
0 0 0 0 0 0 0 0 0 
0 0 0 0 0 0 0 0 3.14976e-08 
0 0 0 0 0 0 0 0 0 
0 7.09004e-06 0 7.53796e-06 0 0 0 2.92895e-08 0 
0 0 0 0 0 0 0 0 0 
0 0 0 0 0 0 0 0 2.53801e-08 
8.01413e-06 8.01941e-06 0 0 0 0 0 6.7888e-06 0 
0 0 0 0 2.01071e-08 0 0 0 0 
0 0 0 0 0 0 0 0 6.98095e-08 
0 0 0 0 0 0 0 0 0 
0 0 0 0 0 0 0 0 0 
0 0 0 0 1.63574e-08 0 0 0 0 
0 0 0 4.43672e-08 0 0 3.21278e-08 6.86393e-06 0 
0 0 0 0 0 0 7.1833e-06 0 0 
0 0 0 7.13931e-06 0 7.12182e-06 0 0 6.83576e-06 
2.75703e-08 0 0 0 5.14651e-10 0 0 0 0 
0 0 0 0 0 0 0 0 0 
0 0 0 0 0 0 0 0 0 
0 0 0 0 0 0 0 0 0 
0 0 0 7.20031e-06 0 0 0 0 0 
0 1.36834e-08 0 0 0 0 0 0 0 
0 0 0 0 0 0 0 0 0 
0 0 0 0 0 0 0 0 0 
0 0 0 0 0 0 0 0 0 
6.9541e-06 0 0 0 0 8.2116e-06 0 0 0 
0 0 0 0 0 0 0 1.0064e-08 0 
0 0 0 0 0 0 2.24869e-10 0 0 
0 0 0 0 0 0 0 0 0 
0 0 0 0 0 0 0 0 0 
0 0 0 0 7.18419e-10 0 0 2.15032e-08 7.53098e-06 
3.14672e-06 8.61523e-06 0 0 0 0 0 0 0 
0 1.08965e-10 0 0 0 0 0 0 0 
3.25187e-08 0 0 0 0 0 0 0 0 
0 0 0 0 0 0 0 0 0 
0 0 0 0 0 0 0 0 0 
0 0 6.97143e-06 0 0 7.64581e-06 0 0 0 
6.908e-06 0 0 0 1.84951e-08 0 0 0 0 
0 0 0 0 6.76999e-06 3.26916e-08 0 0 0 
0 0 0 4.65405e-12 0 0 0 0 0 
0 0 0 0 0 0 0 0 6.74155e-08 
0 0 0 0 0 0 0 0 0 
0 0 0 0 0 0 0 7.05604e-06 0 
6.70386e-06 0 0 0 6.79708e-06 0 3.90333e-10 0 0 
0 0 0 0 0 0 0 0 0 
0 0 0 0 0 0 0 0 0 
6.88038e-06 0 0 0 6.87689e-06 0 0 0 0 
0 0 0 0 0 0 0 0 0 
0 0 0 2.52527e-08 0 0 0 0 0 
0 0 4.26645e-10 0 0 0 0 0 0 
0 0 0 0 0 0 0 0 0 
0 0 0 0 0 0 0 8.17828e-06 0 
0 0 0 3.66405e-09 0 0 0 0 0 
0 0 0 0 0 0 0 0 0 
0 0 2.93174e-08 6.81548e-06 1.3779e-08 0 0 0 0 
0 0 0 0 0 0 0 0 0 
0 0 0 0 0 0 0 0 0 
0 0 0 8.05693e-06 0 0 0 0 0 
0 0 0 6.79412e-06 5.95204e-10 0 0 0 0 
0 0 0 0 0 0 0 0 0 
0 0 0 0 0 0 0 0 0 
0 0 0 0 0 0 0 0 0 
0 0 0 0 0 0 0 0 0 
0 4.2953e-10 0 0 0 0 0 8.92872e-10 0 
0 0 5.60838e-10 0 0 0 0 0 0 
4.84551e-08 0 0 0 0 0 0 0 9.52813e-10 
7.23305e-06 0 0 0 0 0 0 0 0 
0 0 7.04581e-10 0 0 0 0 0 0 
0 0 0 0 0 0 0 6.78308e-06 2.72024e-10 
1.15318e-08 0 2.12623e-10 0 0 0 0 0 0 
0 0 0 0 3.19149e-08 6.7803e-06 4.28935e-08 0 0 
0 0 0 0 7.18603e-06 0 1.05265e-07 6.88686e-06 0 
0 0 0 0 0 0 0 0 0 
0 0 0 0 0 0 0 0 0 
0 0 0 0 0 0 0 3.97433e-08 6.8832e-06 
4.02277e-08 0 0 0 0 0 3.65259e-08 0 0 
0 0 0 0 0 0 0 7.02798e-11 0 
0 0 1.61672e-08 0 0 0 0 0 0 
0 0 0 0 0 0 0 0 0 
2.76611e-10 0 0 6.77729e-06 0 0 0 0 0 
0 0 0 0 0 0 0 0 0 
0 0 6.96501e-06 4.57366e-08 0 0 0 0 0 
0 1.29181e-09 0 0 0 0 0 0 0 
0 0 0 0 0 0 0 0 0 
0 0 0 0 0 0 0 0 0 
0 0 0 0 0 4.82849e-11 0 8.0314e-06 1.80476e-10 
0 0 2.44727e-10 0 8.02741e-06 8.10426e-06 0 0 0 
6.98929e-06 0 0 0 0 0 0 0 0 
0 0 0 0 0 0 0 0 0 
0 0 0 0 0 0 0 0 0 
0 0 4.99053e-10 0 0 0 1.25375e-10 0 0 
2.36557e-10 0 0 0 0 0 0 2.71172e-10 0 
0 0 0 0 3.81552e-08 0 7.35447e-10 0 0 
0 0 0 0 6.77741e-10 8.18837e-10 0 0 0 
0 0 0 0 0 0 0 0 0 
0 0 0 0 0 0 0 0 0 
0 0 1.74115e-08 0 0 0 1.2368e-10 0 0 
0 0 0 0 0 0 0 0 0 
8.44025e-06 0 8.27244e-08 7.21764e-06 0 0 0 0 0 
0 0 0 6.18797e-10 0 0 0 0 0 
0 0 0 0 0 0 0 0 0 
0 0 0 0 0 2.26783e-08 6.80346e-06 0 0 
7.00213e-06 0 0 0 0 0 0 0 0 
0 7.50401e-10 0 0 2.00911e-10 8.84661e-06 0 7.48849e-06 0 
0 0 0 0 3.20426e-10 0 0 0 1.15754e-08 
2.74831e-08 0 0 0 1.489e-08 0 0 0 0 
0 0 0 0 0 2.71076e-10 0 0 7.1908e-10 
0 0 0 0 0 5.46793e-08 0 0 0 
0 0 0 0 0 0 0 6.84241e-06 0 
0 0 0 0 0 0 0 0 0 
0 8.17713e-06 0 0 0 6.91124e-06 0 0 6.8824e-06 
5.30363e-10 0 0 0 9.80123e-11 4.12115e-10 0 6.29516e-10 0 
0 0 0 0 7.23531e-10 8.56588e-10 0 0 0 
2.81986e-08 6.97874e-06 0 0 0 0 0 0 0 
0 0 0 0 0 0 0 0 0 
3.5519e-08 0 0 0 7.05621e-06 0 8.42095e-06 0 7.14769e-06 
0 0 0 0 0 0 0 0 0 
0 0 0 0 0 0 0 0 0 
0 0 0 0 0 0 0 0 0 
0 0 0 0 0 4.65544e-10 0 0 0 
0 0 0 0 0 6.79324e-06 2.35409e-08 0 0 
6.2743e-08 0 4.27521e-08 0 0 0 0 3.13563e-08 6.87225e-06 
0 0 0 0 0 0 4.79385e-10 0 0 
0 0 0 0 0 0 0 0 0 
0 0 0 0 0 0 0 0 0 
0 0 0 0 4.28088e-10 0 0 0 0 
0 0 0 0 0 0 0 0 0 
0 0 0 0 0 0 0 0 0 
0 0 0 0 0 0 0 0 0 
0 0 0 0 0 0 0 0 0 
0 0 0 0 0 0 0 0 0 
0 0 0 0 0 0 1.92514e-08 0 0 
0 2.57413e-10 0 0 0 0 0 0 0 
0 0 0 0 0 0 0 0 0 
0 0 0 0 0 0 0 5.76851e-10 0 
0 0 0 0 0 0 0 0 0 
0 0 0 0 0 0 0 0 0 
0 0 0 0 0 0 0 0 0 
0 0 0 0 0 6.85585e-09 0 3.31312e-10 0 
0 0 0 0 0 0 0 0 0 
0 0 0 0 0 0 0 0 0 
0 0 0 0 0 0 0 0 0 
0 0 0 0 0 0 0 0 0 
0 0 0 0 0 0 0 0 0 
0 0 0 5.73326e-10 0 0 0 0 0 
0 0 0 0 0 0 0 0 0 
0 0 0 0 0 0 0 0 0 
0 0 0 0 0 0 0 0 0 
0 0 0 0 0 0 5.52852e-10 0 8.58432e-10 
0 0 0 0 0 0 0 0 0 
0 0 0 0 0 0 0 0 0 
0 0 0 0 0 1.139e-11 0 0 0 
0 0 0 0 0 0 0 2.3066e-11 0 
0 0 0 0 0 0 0 0 0 
0 0 0 0 0 0 0 0 0 
0 0 0 0 0 0 0 0 0 
0 0 0 0 0 0 0 0 0 
0 0 0 0 0 5.93854e-10 0 0 0 
0 0 0 0 0 0 0 0 1.92331e-10 
0 0 0 0 0 0 0 0 0 
0 0 0 0 0 0 0 0 0 
0 0 0 0 0 0 0 
feature_2 1 2500 float
0 0 0 0 0 0 0 0 0 
0 0 0 0 0 0 0 0 0 
0 0 0 0 0 0 0 0 0 
0 0 0 0 0 0 0 0 0 
0 0 0 0 0 0 0 0 0 
0 0 0 6.04627e-10 0 0 0 0 0 
0 0 0 0 0 5.74492e-10 9.47189e-11 0 0 
0 0 0 0 0 0 0 0 0 
0 0 0 0 0 0 0 0 0 
0 0 0 0 0 0 1.31628e-10 0 0 
0 0 0 0 0 0 0 0 0 
2.69745e-08 0 0 0 0 0 0 0 0 
0 0 0 0 0 0 0 0 0 
0 0 0 0 0 0 0 0 0 
0 0 0 0 0 0 0 0 0 
5.6821e-10 0 0 0 0 0 0 0 0 
0 0 0 0 0 0 0 0 0 
0 0 0 0 0 0 0 0 0 
0 0 0 0 0 0 0 0 0 
0 0 0 0 0 0 0 0 0 
0 0 0 0 0 0 0 0 0 
0 4.22048e-10 0 0 0 0 0 4.09578e-10 0 
0 0 0 0 0 0 0 0 0 
0 0 0 1.37651e-10 0 0 0 0 0 
0 0 0 0 0 0 0 0 0 
0 0 4.62794e-10 2.84402e-10 0 0 0 0 0 
0 7.68228e-10 0 0 0 0 0 0 0 
0 0 1.44336e-08 0 0 0 0 0 0 
0 0 0 0 0 0 0 0 0 
0 0 0 0 3.7781e-10 0 0 0 0 
0 0 0 0 0 0 0 0 0 
0 0 5.91079e-10 0 0 8.70237e-11 0 0 0 
0 0 0 0 0 0 0 0 0 
0 0 0 0 0 0 0 0 0 
0 0 0 0 0 0 0 0 0 
0 0 0 0 0 0 0 4.16982e-10 0 
0 0 0 0 0 0 0 0 0 
0 0 1.09785e-08 0 0 0 0 0 0 
0 0 0 0 0 0 0 0 0 
0 0 0 0 0 0 0 0 0 
0 0 0 0 0 0 0 0 0 
0 0 0 0 0 0 0 0 0 
0 0 0 0 0 2.99352e-11 0 0 0 
0 0 0 0 0 0 2.60052e-10 1.29451e-10 0 
0 0 0 0 0 0 1.75093e-08 0 0 
0 0 0 9.48036e-08 0 0 2.1007e-10 0 0 
0 0 0 0 0 0 0 0 0 
0 0 0 0 0 0 0 0 0 
0 0 0 0 0 0 0 0 0 
0 0 0 0 0 0 0 0 0 
0 0 0 0 0 0 0 0 0 
0 0 0 0 0 0 0 0 0 
0 0 0 0 0 0 0 0 0 
0 0 0 0 0 0 0 0 0 
0 0 0 0 0 0 0 0 0 
0 0 5.47518e-10 0 0 0 0 0 0 
0 0 0 0 0 0 0 0 0 
0 0 0 0 0 0 0 8.15589e-10 0 
0 0 0 0 0 0 0 0 0 
0 0 0 0 0 0 0 0 0 
0 0 0 0 0 0 0 0 0 
0 0 0 0 0 0 0 0 0 
5.50045e-10 0 0 0 0 0 0 0 0 
0 0 0 0 0 0 0 0 0 
0 0 0 0 0 0 0 0 0 
0 0 7.91431e-10 0 0 0 0 0 0 
0 0 0 0 0 0 0 0 0 
0 0 0 0 0 0 0 6.96625e-11 1.44095e-10 
0 0 0 0 0 0 0 0 0 
0 0 0 0 0 0 0 0 0 
0 0 0 0 0 0 0 0 0 
0 0 0 0 0 0 0 0 0 
0 0 0 0 0 0 0 0 0 
0 0 0 0 0 0 0 1.59643e-10 0 
0 3.40652e-10 0 0 0 3.39371e-10 0 0 0 
0 0 4.65668e-10 0 0 0 0 0 0 
0 0 0 0 0 0 0 0 0 
0 0 0 7.29255e-10 0 0 0 0 0 
0 0 0 0 0 0 1.41965e-09 0 2.74319e-10 
0 0 0 0 0 0 0 0 0 
0 0 6.5782e-11 0 0 0 0 0 0 
0 0 0 0 0 0 0 0 3.5695e-10 
0 0 0 0 0 0 0 0 0 
0 0 0 0 0 0 0 0 0 
3.0979e-10 0 0 0 0 0 0 6.82338e-07 3.23953e-07 
0 0 0 0 0 0 0 0 0 
0 0 0 0 0 0 0 0 0 
0 0 0 0 0 0 0 0 0 
0 0 0 0 0 0 0 0 0 
0 0 0 0 0 0 0 0 0 
0 0 0 1.19635e-07 0 0 0 0 0 
0 4.12328e-11 0 0 0 0 0 0 0 
0 0 0 0 0 0 0 0 0 
0 0 0 0 0 0 0 0 0 
0 0 0 7.09123e-10 0 0 0 0 0 
0 0 0 1.39055e-10 0 0 0 0 0 
0 0 0 0 0 0 0 0 0 
0 0 0 0 0 0 0 0 0 
0 0 0 0 0 0 1.63201e-10 0 0 
0 0 0 0 0 0 0 0 0 
0 0 0 0 0 6.11038e-10 0 0 0 
0 0 6.21704e-10 0 0 0 5.52859e-10 0 0 
0 0 0 0 0 0 0 0 0 
0 1.03845e-09 5.93932e-10 0 4.84164e-10 0 0 0 0 
0 0 0 0 0 2.54019e-11 0 0 0 
0 0 0 0 0 0 0 0 0 
0 0 0 4.73598e-10 0 0 0 0 0 
0 0 0 0 0 0 0 0 0 
0 0 0 0 0 0 0 0 0 
0 0 0 0 0 0 0 0 0 
0 0 0 0 0 0 0 0 0 
0 0 0 0 0 0 0 0 0 
0 0 0 0 0 0 0 0 0 
0 0 0 0 0 0 0 0 0 
0 0 0 0 0 0 0 0 0 
0 0 0 0 0 0 0 0 0 
0 0 0 0 0 6.66393e-10 0 0 0 
0 0 0 0 0 0 0 0 0 
0 0 0 0 0 0 0 0 0 
0 0 0 0 0 0 0 0 0 
0 0 0 0 0 0 0 0 0 
0 0 0 0 2.38863e-10 0 0 0 0 
0 0 0 0 0 0 0 0 0 
0 0 0 0 0 0 0 0 0 
0 0 0 0 6.42093e-10 0 0 0 0 
0 0 0 0 0 0 0 0 0 
0 0 0 0 0 0 0 0 0 
0 0 0 8.27782e-10 0 0 0 0 0 
0 0 0 0 0 0 0 0 0 
0 0 0 0 0 0 0 7.09903e-10 0 
0 0 0 0 0 0 0 0 0 
0 0 0 0 0 0 0 0 0 
0 0 0 0 0 0 0 5.17048e-10 0 
0 0 0 0 1.94698e-10 0 0 0 0 
0 0 0 0 0 0 0 1.86144e-09 0 
0 0 0 0 0 0 0 0 0 
0 0 0 0 0 0 0 0 0 
0 0 0 0 0 0 0 0 3.93147e-10 
0 0 0 0 0 0 0 0 0 
0 0 0 0 0 2.8038e-10 0 0 0 
0 0 0 0 0 0 0 0 0 
0 0 0 0 4.94744e-10 0 0 0 7.45146e-11 
0 0 0 0 0 0 0 0 0 
0 0 0 0 0 0 0 0 0 
0 0 0 0 0 0 0 0 0 
0 0 0 0 0 0 0 0 0 
0 2.22652e-08 0 3.81473e-10 0 0 0 0 0 
0 0 0 0 0 0 0 0 0 
0 0 0 0 0 0 0 0 0 
0 0 0 6.56275e-10 0 0 0 0 0 
0 0 0 0 0 0 0 0 0 
0 0 0 0 0 0 0 3.68825e-11 0 
0 0 0 0 0 1.82108e-08 0 0 0 
0 0 0 0 0 0 0 0 0 
0 0 0 1.49029e-10 0 0 0 7.35865e-11 1.22525e-08 
0 0 0 0 0 0 0 0 0 
0 0 0 0 0 0 0 0 0 
0 0 0 0 0 0 0 0 0 
0 0 0 0 0 0 0 0 0 
0 0 0 0 0 0 0 0 0 
0 0 0 0 0 0 0 0 0 
0 0 0 0 0 0 0 0 0 
9.60284e-10 0 0 0 0 0 0 0 0 
0 0 0 0 0 0 0 0 0 
0 0 0 0 0 0 0 0 0 
0 1.5539e-10 0 0 0 0 0 0 0 
0 0 0 0 0 0 0 0 0 
0 0 0 0 0 0 0 0 0 
0 0 0 0 0 0 0 0 0 
0 0 0 0 0 0 0 0 2.59586e-10 
0 0 0 0 0 0 0 0 0 
0 0 0 0 0 7.52756e-10 0 0 0 
0 0 0 0 0 0 0 2.94566e-10 0 
0 0 0 0 0 0 0 0 0 
0 0 5.77767e-10 0 0 0 0 0 0 
0 0 0 0 0 0 0 0 0 
0 0 0 0 0 0 0 0 0 
0 0 0 0 0 0 0 0 0 
0 0 0 0 0 0 0 0 0 
0 0 0 0 0 0 0 4.24834e-10 2.52953e-10 
0 0 0 6.10996e-11 0 0 0 0 0 
0 0 0 0 0 0 0 0 0 
0 0 0 0 0 0 0 0 6.18549e-10 
0 0 0 6.97341e-10 0 8.09639e-10 0 0 0 
0 0 0 0 0 0 0 0 0 
0 0 3.46351e-10 0 0 0 0 0 0 
0 0 0 0 0 0 0 0 0 
0 0 0 0 0 0 0 0 0 
0 0 0 0 0 0 0 0 0 
0 0 0 0 0 0 0 0 0 
0 0 0 0 0 0 0 0 0 
3.99652e-10 0 0 0 0 0 0 0 0 
4.07963e-10 0 0 0 0 0 0 0 0 
0 0 0 0 0 0 0 0 0 
0 0 0 0 0 0 0 0 0 
0 0 0 0 0 0 0 0 0 
0 0 0 0 0 0 0 0 0 
3.76851e-10 0 0 0 0 5.33404e-10 0 0 0 
0 0 0 0 0 0 3.43711e-10 2.34223e-10 0 
0 0 0 0 0 0 0 0 0 
0 3.11651e-10 0 0 0 0 0 0 0 
0 0 0 0 0 0 0 0 0 
0 9.29209e-10 0 0 0 0 0 0 0 
0 0 0 0 0 0 0 0 0 
0 0 0 0 0 0 0 0 0 
7.7749e-10 0 0 0 0 0 0 0 0 
0 7.50475e-11 0 0 0 0 0 0 0 
0 0 0 0 0 0 0 0 0 
0 0 0 7.67901e-10 0 0 0 0 0 
0 0 0 0 0 0 0 0 0 
0 0 0 0 0 0 0 0 0 
1.16579e-09 0 0 0 0 0 0 0 0 
0 0 0 0 0 0 0 0 0 
0 0 0 0 0 0 0 0 0 
9.25972e-10 0 0 0 0 0 0 0 0 
0 0 0 0 0 0 0 0 0 
0 0 0 3.31653e-08 0 0 0 0 1.31331e-08 
0 0 0 0 0 0 0 0 0 
1.30357e-09 0 0 0 0 0 2.22364e-11 0 0 
0 0 0 0 0 0 0 0 3.82681e-10 
0 0 0 0 0 0 0 0 0 
0 0 0 0 0 0 0 0 0 
0 0 0 0 0 0 0 0 0 
0 0 0 0 0 0 0 0 0 
0 0 0 0 0 0 0 0 7.25514e-10 
6.29594e-10 0 0 0 0 0 0 0 0 
0 0 0 0 0 0 0 0 0 
0 4.43897e-10 0 2.63574e-09 1.82369e-08 0 0 0 0 
0 0 0 5.65986e-10 0 0 0 0 0 
0 0 0 0 0 0 0 0 5.91886e-10 
0 0 1.13449e-08 0 0 0 0 0 0 
0 0 0 0 0 0 0 0 0 
0 0 0 0 0 0 0 0 0 
0 0 0 0 0 0 0 0 2.33038e-08 
0 0 0 0 0 0 0 0 0 
0 0 0 0 3.1406e-11 0 0 0 0 
0 0 0 0 0 0 0 0 0 
0 0 0 0 0 0 0 0 0 
0 0 0 1.72758e-10 0 0 0 1.49425e-10 0 
0 0 0 0 0 0 0 0 0 
0 0 0 0 0 0 0 7.6561e-11 0 
0 0 0 0 0 3.00442e-10 0 0 0 
0 0 0 0 0 0 0 0 0 
0 9.34161e-10 0 0 0 0 0 0 0 
0 0 0 0 0 0 0 0 0 
0 0 0 0 0 0 0 0 0 
0 0 0 0 0 0 0 0 0 
0 0 0 3.79419e-10 0 0 0 0 0 
0 0 0 3.16584e-09 0 0 0 2.28553e-10 0 
0 0 0 0 0 0 0 0 0 
0 0 0 0 0 0 0 1.71078e-08 0 
0 0 0 0 0 0 0 0 0 
0 0 0 0 0 0 3.05487e-10 0 0 
0 0 0 0 0 0 0 0 0 
0 0 0 0 0 0 4.6963e-10 0 0 
0 0 0 0 0 0 0 0 0 
0 0 0 4.88068e-10 0 0 0 0 0 
0 0 0 0 0 0 0 0 0 
0 0 0 0 0 0 0 4.56298e-10 0 
0 0 0 0 0 0 0 0 0 
0 4.78543e-10 0 0 0 0 0 0 0 
0 0 5.87383e-10 1.9492e-10 0 0 0 0 0 
0 0 2.79611e-10 0 2.88465e-08 0 0 0 0 
0 0 0 0 0 0 0 0 0 
0 0 0 0 0 0 0 0 0 
0 0 0 0 0 0 0 9.96891e-11 0 
0 0 0 2.16509e-09 0 0 0 0 0 
0 0 0 0 0 0 0 5.69351e-10 0 
0 0 0 0 0 0 0 0 0 
0 0 2.43406e-09 0 0 0 1.93928e-10 0 2.164e-08 
0 0 0 0 1.93548e-10 0 0 0 0 
0 0 0 0 0 0 0 0 0 
4.18055e-10 0 0 0 0 0 0 0 0 
0 0 0 0 0 0 0 0 0 
0 0 0 0 0 0 0 0 0 
2.72582e-10 0 0 0 3.35998e-10 0 0 0 0 
0 2.36646e-11 0 0 0 0 0 0 0 
0 0 0 0 0 0 0 
feature_3 1 2500 float
0 0 0 0 0 0 0 0 0 
0 0 0 0 0 0 0 0 0 
0 0 0 0 0 0 0 0 0 
0 0 0 0 0 0 0 0 0 
0 0 0 0 0 0 0 0 0 
0 0 0 0 0 7.31319e-10 0 0 0 
0 0 0 0 0 0 0 0 0 
5.09246e-10 0 0 0 0 0 0 0 0 
0 0 0 0 0 0 0 0 0 
0 0 0 0 0 0 0 0 0 
0 0 0 0 0 0 0 0 0 
0 0 0 0 0 0 0 0 0 
0 0 0 0 0 0 0 5.05267e-10 0 
0 0 0 8.00366e-10 0 0 4.27814e-10 0 0 
0 0 0 0 0 0 0 0 0 
0 0 0 5.45157e-10 0 0 0 0 0 
0 0 0 0 0 0 0 0 0 
0 0 0 0 0 0 0 0 0 
0 0 0 0 9.24447e-09 0 0 0 1.48955e-10 
0 0 0 0 0 0 0 0 0 
0 0 0 0 0 0 0 0 0 
0 0 0 0 0 0 0 0 0 
0 2.86329e-10 0 0 0 0 0 0 0 
0 0 0 0 0 0 0 0 0 
0 0 0 0 0 0 0 0 0 
0 0 0 0 0 0 0 0 0 
3.62657e-10 0 0 0 0 0 0 0 0 
3.70619e-11 0 0 0 0 0 0 0 0 
0 0 0 0 0 0 0 0 0 
0 0 0 0 0 0 0 0 0 
0 0 0 0 0 0 0 0 5.98167e-10 
0 0 0 0 0 0 0 0 0 
0 0 0 0 0 0 0 0 0 
0 0 0 0 0 0 0 0 0 
0 0 0 0 0 0 0 0 0 
0 0 0 0 0 0 0 0 0 
0 0 0 0 2.36088e-10 0 0 0 0 
0 0 0 0 0 0 0 0 0 
0 0 0 0 0 0 0 0 0 
0 0 0 0 2.01673e-10 0 0 0 0 
0 0 0 0 0 0 0 0 0 
0 0 0 0 0 0 0 0 0 
0 0 0 0 0 0 0 0 0 
0 0 0 0 0 0 0 0 0 
0 0 0 4.53834e-10 0 0 0 0 2.90363e-11 
0 0 0 0 0 0 0 0 0 
0 0 0 0 0 0 0 0 0 
1.90816e-11 0 0 0 0 0 0 0 0 
0 0 1.53289e-10 0 0 0 0 0 0 
0 0 0 0 0 0 0 0 0 
4.87887e-10 0 0 0 0 0 0 0 0 
0 0 0 0 0 0 0 0 0 
0 0 0 0 0 0 0 0 0 
0 0 0 0 0 0 0 0 0 
0 0 0 0 0 0 0 0 0 
0 0 0 0 0 0 0 0 0 
0 0 0 0 0 0 0 0 0 
0 0 0 0 0 0 0 0 0 
0 0 0 0 0 0 0 0 0 
0 0 0 0 0 0 0 0 0 
0 0 0 0 9.43245e-10 0 0 3.58494e-10 0 
0 0 0 0 0 0 0 0 0 
0 0 0 0 0 0 0 0 0 
0 0 0 0 0 0 0 0 0 
0 0 0 0 0 0 0 0 0 
0 0 0 0 0 0 0 0 0 
0 0 0 0 0 0 0 0 0 
0 0 0 0 0 0 0 0 0 
0 0 0 0 0 0 0 0 0 
0 0 0 0 0 0 0 0 0 
0 0 0 0 0 0 0 0 0 
0 0 0 0 0 0 0 0 0 
0 0 0 6.02505e-10 0 0 0 0 0 
0 0 0 0 0 0 0 0 0 
3.46464e-10 0 0 0 0 0 0 0 0 
0 0 0 0 0 0 0 0 0 
0 0 0 0 0 0 5.63332e-10 0 0 
0 0 0 0 0 0 0 7.46418e-10 0 
0 0 0 0 0 0 0 0 0 
7.58437e-10 0 0 0 0 0 0 0 0 
0 0 0 0 0 7.92575e-11 0 0 0 
0 0 0 0 0 0 8.18723e-11 0 0 
0 0 0 0 2.42077e-10 0 0 0 0 
0 0 0 0 0 0 0 0 0 
0 0 0 0 0 0 0 0 0 
0 0 0 5.62263e-10 0 0 0 0 0 
0 0 0 0 0 0 0 0 0 
0 0 0 0 0 0 0 0 0 
5.81171e-10 0 0 0 0 0 0 0 0 
0 0 0 0 0 0 0 0 0 
0 0 0 0 0 0 0 0 0 
0 0 0 0 0 0 0 0 0 
0 0 0 0 0 0 0 0 0 
0 0 0 0 0 0 0 0 3.48292e-10 
0 5.86933e-10 0 0 0 0 0 0 1.9217e-10 
0 0 0 0 0 0 2.1004e-10 0 0 
0 0 0 0 0 0 0 0 0 
0 0 0 0 0 0 0 0 0 
0 0 0 0 1.02404e-07 0 0 0 0 
0 0 0 0 0 0 0 0 0 
0 0 0 0 0 0 0 0 0 
0 0 0 0 0 0 0 0 0 
0 0 3.7225e-10 0 0 0 1.45878e-10 0 0 
0 0 0 0 0 0 0 0 0 
0 0 0 0 0 0 0 0 0 
0 6.92712e-10 0 0 0 0 0 0 0 
0 0 0 0 0 0 0 0 0 
0 0 0 0 0 0 0 0 0 
0 0 0 0 0 0 0 0 0 
0 0 0 0 0 0 0 0 0 
0 0 0 0 0 0 0 0 0 
5.14333e-10 0 0 0 0 2.8793e-10 0 0 0 
0 0 0 0 0 0 0 0 0 
8.62457e-11 0 0 0 0 0 0 0 0 
0 0 0 0 0 0 0 0 0 
0 0 0 0 0 0 0 0 0 
0 0 0 0 0 0 0 0 0 
2.39986e-10 0 0 0 0 0 0 0 0 
0 0 0 0 0 0 0 0 0 
0 0 0 0 0 0 0 0 0 
0 0 0 0 0 0 0 0 0 
0 0 0 0 0 0 7.36637e-10 5.92088e-10 0 
0 0 2.96141e-08 0 0 0 0 0 0 
0 0 0 0 0 0 0 0 0 
0 0 0 0 2.27834e-09 0 0 0 0 
0 0 5.84895e-09 0 0 0 0 0 0 
0 0 0 0 0 0 0 0 0 
0 0 0 0 0 0 0 0 6.83237e-10 
0 1.57431e-10 0 0 0 0 0 0 0 
0 0 0 0 0 0 0 0 6.2586e-10 
0 0 0 0 0 0 0 0 0 
0 0 0 0 0 0 0 0 0 
0 0 0 0 0 0 0 0 0 
0 0 0 0 0 0 0 0 0 
0 0 0 0 0 0 0 0 0 
0 0 0 0 0 0 0 0 0 
0 0 0 0 0 0 0 0 0 
0 0 0 0 0 0 0 0 0 
0 0 0 0 0 0 0 0 3.88015e-10 
0 0 0 0 0 0 0 0 0 
0 0 0 0 0 0 0 0 0 
0 0 0 0 0 0 0 0 0 
0 0 0 0 0 0 0 0 0 
0 0 0 0 0 0 0 0 0 
0 0 0 0 8.699e-10 1.95301e-08 0 0 2.2043e-08 
0 0 0 0 0 0 0 2.67711e-10 0 
0 1.62038e-08 0 0 0 0 0 0 0 
0 3.71983e-10 0 0 0 0 0 0 0 
0 0 0 0 0 0 0 0 0 
0 0 0 0 0 0 0 0 0 
0 0 0 0 0 0 0 0 3.09456e-10 
0 0 0 0 0 4.99487e-10 0 0 0 
0 0 0 0 0 0 0 0 0 
0 0 0 0 0 2.6697e-10 0 0 0 
0 0 0 0 0 0 0 0 0 
0 6.35897e-10 0 0 0 0 0 0 0 
0 0 0 0 0 0 0 0 0 
0 0 0 0 0 0 0 0 0 
0 0 0 0 0 0 0 0 0 
0 0 0 0 0 0 0 0 0 
0 0 0 0 0 0 0 1.58476e-10 0 
0 0 0 0 0 0 0 0 0 
0 0 2.91505e-10 0 0 0 1.46976e-10 0 0 
0 0 0 0 0 0 0 0 0 
0 0 0 0 0 0 0 0 0 
0 0 0 0 0 0 0 0 0 
0 0 0 0 0 0 0 0 0 
0 0 0 0 0 0 0 7.12475e-10 0 
0 0 0 0 0 0 0 0 0 
0 0 0 0 0 0 0 0 0 
0 0 0 0 0 0 0 0 0 
0 0 0 0 0 0 0 0 0 
0 0 0 0 0 0 0 0 0 
0 0 0 3.27599e-10 0 0 0 0 0 
0 0 0 0 0 0 0 0 0 
0 0 0 0 0 0 0 0 0 
0 0 0 0 0 0 0 0 0 
0 0 0 0 0 0 0 0 0 
0 0 0 0 2.55014e-10 0 0 0 0 
0 0 0 0 0 0 0 0 0 
0 0 0 0 3.30161e-10 4.87475e-10 0 0 0 
0 0 0 0 0 0 0 2.42423e-10 0 
0 0 0 0 0 4.23245e-10 0 0 0 
0 0 0 0 0 0 0 0 0 
0 0 0 0 0 0 0 0 0 
3.14669e-10 0 2.16005e-10 0 0 0 0 0 0 
0 3.17854e-10 0 0 0 0 0 0 0 
0 0 0 0 0 0 0 0 0 
0 0 0 5.74722e-10 0 0 0 0 0 
0 0 0 0 0 0 0 0 0 
0 0 0 0 0 0 0 0 0 
0 0 0 0 0 0 0 0 0 
0 0 0 0 0 0 0 0 0 
0 0 0 0 0 0 0 0 0 
0 0 0 0 0 0 0 0 0 
0 0 0 0 9.26192e-10 0 0 0 0 
0 0 0 0 0 0 0 4.84182e-10 0 
0 0 6.13419e-10 0 0 0 0 0 0 
2.83031e-08 0 0 0 0 0 0 2.11386e-11 0 
0 0 0 7.2443e-10 0 0 0 0 0 
1.52664e-08 0 0 0 0 0 0 0 0 
0 0 0 0 0 0 0 0 0 
0 0 0 1.83611e-10 0 0 0 0 5.34701e-10 
0 0 0 0 0 0 0 0 0 
0 0 0 0 0 0 0 0 0 
0 0 0 0 0 0 0 0 0 
0 0 0 0 0 9.89679e-11 0 0 0 
0 0 0 0 0 0 0 0 0 
0 0 0 2.08464e-10 0 0 0 0 0 
0 0 0 0 0 0 0 0 0 
0 0 0 0 0 0 0 0 0 
0 0 0 0 0 0 0 0 0 
0 0 0 0 0 0 0 0 0 
0 0 0 0 0 0 0 0 0 
0 0 0 0 0 0 0 0 0 
0 0 0 0 0 4.55397e-10 0 0 0 
0 0 0 0 0 0 0 0 0 
0 0 0 0 0 4.80894e-10 0 0 0 
0 0 0 0 0 3.89257e-10 0 0 0 
0 0 0 0 0 0 0 0 0 
0 0 0 0 0 0 0 0 0 
0 0 0 0 0 0 0 4.04739e-10 0 
0 0 0 3.84521e-10 0 0 0 0 0 
0 0 0 0 0 0 0 0 0 
0 0 0 0 0 0 0 0 0 
0 0 0 0 0 0 0 0 8.34564e-10 
0 0 0 0 0 0 0 0 0 
0 0 1.49765e-10 0 0 0 0 0 0 
0 0 0 0 0 0 0 0 0 
0 0 0 0 0 0 0 0 0 
0 2.55714e-10 0 0 0 3.10539e-10 0 0 0 
0 0 0 0 0 0 0 0 0 
2.28294e-10 0 0 0 0 6.7902e-10 0 0 0 
0 0 0 0 0 0 0 0 0 
0 0 0 0 0 0 0 0 0 
0 0 0 0 0 0 0 0 0 
0 0 0 0 0 0 0 0 0 
0 0 0 0 0 0 0 0 0 
0 0 0 0 0 0 0 0 0 
0 6.46008e-10 0 0 0 0 0 0 0 
0 0 0 0 0 0 0 2.30816e-10 0 
0 0 0 0 0 0 0 0 5.69663e-10 
0 0 0 0 0 0 0 0 0 
0 0 0 0 0 0 0 0 0 
0 0 0 0 0 0 0 0 0 
0 0 0 0 0 0 0 0 5.77199e-10 
0 0 0 0 0 0 0 0 0 
0 0 7.50095e-10 0 0 0 0 0 0 
0 0 0 0 0 0 0 0 0 
0 0 0 0 0 0 0 0 0 
1.34728e-08 0 0 0 0 0 0 0 0 
0 0 0 0 0 0 0 0 0 
0 0 0 0 0 0 0 0 0 
0 0 0 0 0 0 0 0 0 
0 0 0 0 0 0 0 0 0 
0 0 0 0 0 0 0 0 0 
0 0 0 0 0 0 0 0 0 
0 0 7.72868e-10 0 0 0 0 0 0 
0 0 0 0 0 0 0 0 0 
0 0 0 0 0 0 0 0 0 
0 0 0 0 0 0 0 0 0 
0 0 0 0 0 0 0 0 0 
0 0 0 0 0 0 0 0 7.56266e-11 
0 0 7.24206e-10 0 0 0 0 0 0 
0 0 0 0 0 0 0 0 0 
0 0 0 0 0 0 0 0 0 
0 0 0 0 0 0 0 0 0 
0 0 0 0 0 0 0 0 0 
0 0 0 0 0 0 0 0 0 
0 0 0 0 0 0 0 0 0 
4.80636e-10 0 0 0 0 0 0 0 0 
0 0 3.88049e-10 0 0 0 0 0 0 
0 3.65802e-10 0 0 0 0 0 0 0 
0 0 0 0 0 0 0 0 0 
0 0 0 0 0 0 0 7.48937e-10 0 
0 2.14412e-08 3.5358e-10 0 0 4.2893e-10 0 0 0 
0 0 0 0 0 0 0 0 0 
0 0 0 0 0 0 0 
feature_4 1 2500 float
0 0 0 0 0 0 0 0 0 
0 7.30097e-10 0 7.93229e-10 0 0 0 0 0 
0 0 0 3.16653e-10 0 0 7.71998e-10 0 0 
0 0 0 0 0 0 0 0 0 
0 0 0 0 0 0 0 0 0 
0 0 0 0 0 0 0 0 0 
0 0 0 0 0 0 0 0 0 
0 0 0 0 0 0 0 0 0 
0 0 0 1.54816e-10 0 0 0 0 0 
0 0 0 0 0 0 0 0 0 
0 0 0 0 0 0 0 0 0 
0 0 7.44635e-10 0 0 0 0 0 0 
0 0 0 0 0 0 0 0 0 
0 0 0 0 0 0 0 0 0 
0 2.41553e-10 0 0 0 0 0 0 2.58563e-10 
0 0 0 0 0 0 0 0 0 
0 3.00769e-10 0 0 0 5.40933e-10 5.67766e-10 0 0 
0 0 0 0 0 0 0 0 0 
0 0 0 0 0 0 0 0 0 
0 0 0 0 0 0 0 0 0 
0 0 0 0 0 7.04503e-12 0 0 0 
0 0 0 0 0 0 0 0 3.25985e-10 
0 0 0 0 0 0 0 0 0 
0 0 0 0 0 0 0 0 0 
0 0 0 0 0 0 0 0 0 
0 0 0 0 0 0 0 0 0 
0 0 0 0 0 0 0 0 0 
4.18737e-10 0 0 0 0 0 0 0 0 
0 0 0 0 0 0 0 0 0 
0 0 0 0 0 0 0 0 0 
0 0 0 0 0 0 0 0 0 
0 0 5.7581e-10 0 0 0 0 0 0 
0 0 0 0 0 0 0 0 0 
0 0 0 0 0 0 0 0 0 
0 0 0 0 0 0 0 0 0 
0 0 0 0 0 0 0 6.29235e-10 0 
0 0 0 0 0 0 0 0 0 
0 0 0 0 0 0 0 0 0 
0 0 5.85246e-10 0 0 0 0 0 0 
0 0 0 0 0 0 0 0 0 
0 0 0 0 0 0 0 0 0 
0 0 0 0 0 0 0 0 0 
0 0 0 0 0 0 0 0 0 
0 2.85292e-10 0 0 0 0 0 0 0 
0 0 0 0 0 0 2.7039e-10 0 0 
0 0 0 0 0 0 0 0 0 
0 0 0 0 0 0 0 0 0 
0 0 0 0 0 0 0 0 3.51257e-10 
0 0 0 0 5.64683e-10 0 0 0 0 
0 0 0 0 0 0 0 0 0 
0 0 0 0 0 0 0 0 0 
0 0 0 4.00838e-10 0 0 0 0 0 
0 0 0 0 0 0 0 0 0 
0 0 0 0 0 0 0 0 0 
0 0 0 0 0 0 0 0 0 
0 0 0 0 0 0 0 0 0 
0 0 0 0 0 1.25137e-10 0 0 0 
0 0 0 0 0 0 0 0 0 
0 7.29678e-10 0 0 0 0 0 0 0 
0 0 0 3.94984e-10 0 0 0 0 0 
0 0 0 0 0 0 0 0 0 
0 0 0 0 0 0 0 0 0 
0 0 0 0 0 0 4.9792e-10 0 0 
0 0 0 0 0 0 0 0 0 
0 0 0 0 0 0 0 0 0 
0 0 0 0 0 0 0 0 0 
0 0 2.93813e-10 0 0 0 0 0 0 
0 0 2.67068e-10 0 0 0 0 0 0 
0 0 0 0 0 0 0 0 0 
0 0 0 0 0 0 0 0 0 
0 0 3.54039e-10 0 0 0 0 0 0 
0 0 0 0 0 0 0 0 0 
0 0 0 0 0 0 0 0 0 
0 0 0 0 0 0 0 0 0 
0 0 0 0 0 0 0 0 0 
0 0 0 0 0 0 0 0 0 
0 0 0 0 0 0 0 0 0 
0 0 0 0 0 0 0 0 0 
0 0 0 0 0 0 0 0 0 
0 0 0 0 0 0 0 0 0 
4.02514e-11 0 0 0 0 0 0 0 0 
0 0 0 0 0 0 0 4.28084e-10 1.32609e-10 
0 0 0 0 0 0 0 0 0 
0 0 0 0 0 0 0 0 0 
0 0 0 0 0 0 0 0 0 
0 0 0 0 0 0 0 0 0 
0 0 0 0 0 0 0 0 0 
0 0 0 0 0 0 0 0 0 
0 0 0 0 0 0 0 0 0 
0 0 0 0 0 0 0 0 0 
0 0 4.054e-11 5.9492e-10 0 0 0 0 0 
0 0 0 0 0 0 0 0 0 
0 0 0 0 0 0 0 0 0 
0 0 0 0 0 0 0 0 0 
0 0 0 0 0 0 0 0 0 
0 0 0 0 0 0 0 0 0 
0 0 0 0 0 0 0 0 0 
0 0 0 0 0 0 0 0 0 
9.33902e-11 0 0 0 0 0 0 0 6.26628e-10 
0 0 0 0 0 0 0 0 0 
0 0 0 0 0 0 7.58618e-10 0 0 
0 0 0 0 0 0 0 0 0 
0 3.34602e-10 0 0 0 0 0 0 0 
8.29822e-10 0 0 0 0 0 0 0 0 
0 0 0 0 0 0 0 0 0 
0 0 0 0 0 0 0 0 0 
0 0 0 0 0 0 0 0 0 
0 0 5.94888e-10 0 0 0 0 0 4.44569e-10 
0 0 0 0 0 0 0 0 0 
0 0 0 0 0 0 0 0 0 
0 0 0 0 0 0 0 0 0 
0 0 0 4.26922e-10 0 0 0 0 0 
0 0 0 0 0 0 0 0 0 
0 0 0 0 0 0 0 0 0 
0 0 0 0 0 0 0 0 0 
0 0 0 0 0 0 0 0 0 
0 0 0 0 0 0 0 0 0 
0 0 0 0 0 0 0 0 0 
0 0 0 0 0 0 0 0 0 
0 0 0 0 0 0 3.0418e-10 5.11399e-10 0 
0 0 0 0 0 0 0 0 0 
0 0 0 0 0 0 0 4.47908e-10 0 
0 0 0 0 0 0 0 0 0 
0 0 0 0 0 0 0 0 0 
0 0 0 0 0 0 0 0 0 
0 0 0 0 2.17421e-10 0 0 0 0 
0 0 0 0 0 0 0 0 0 
0 0 0 0 0 0 0 0 0 
0 0 0 0 0 0 0 0 0 
0 0 0 0 0 0 0 0 0 
0 0 0 0 0 0 0 0 0 
0 0 0 0 0 0 0 0 0 
0 0 0 1.2756e-10 0 0 0 0 0 
0 0 0 0 0 0 0 0 0 
0 0 0 0 0 0 0 0 0 
0 0 0 0 0 0 0 2.38067e-10 0 
0 0 0 0 0 0 0 0 0 
0 0 0 0 0 0 0 0 0 
0 0 0 0 0 0 0 0 0 
0 0 0 0 0 0 0 0 0 
0 9.27038e-10 0 0 0 2.38659e-10 0 0 0 
0 0 0 0 0 0 0 0 0 
0 0 0 0 0 0 0 0 0 
0 3.34374e-10 0 0 0 0 0 5.57705e-10 0 
0 0 0 0 0 0 0 0 0 
0 0 0 0 0 0 0 0 0 
0 0 0 0 0 0 0 0 0 
0 0 0 0 0 0 2.20602e-10 0 0 
0 0 0 0 0 0 0 0 0 
0 0 0 0 0 0 0 0 5.73099e-10 
0 0 0 0 0 0 0 0 0 
0 0 0 9.5125e-10 0 0 0 0 0 
0 0 0 0 0 0 0 0 0 
0 0 0 0 0 0 0 0 0 
0 0 0 0 0 0 7.03317e-10 0 0 
0 0 0 0 0 0 0 2.06413e-11 0 
0 0 0 0 0 0 0 0 0 
0 0 0 6.95589e-10 2.69218e-10 0 0 0 0 
0 0 0 0 0 0 0 0 0 
0 0 0 0 0 0 0 0 0 
0 0 0 0 0 0 0 0 0 
0 0 0 0 0 0 0 0 0 
0 2.29987e-10 0 0 0 0 0 0 0 
0 0 0 0 0 0 0 0 0 
0 0 0 0 0 0 0 0 0 
0 0 0 0 0 0 0 0 0 
0 0 0 0 0 0 0 0 0 
0 0 0 0 0 0 0 0 0 
0 0 0 0 0 0 0 0 0 
0 0 0 0 0 0 0 0 2.47482e-11 
0 0 0 0 0 0 0 0 0 
0 3.3393e-10 0 0 0 0 5.67265e-10 0 0 
0 0 0 0 0 0 0 0 0 
0 0 0 0 0 0 0 0 0 
0 0 0 0 0 0 0 9.8952e-11 0 
0 6.94019e-10 0 0 0 0 2.88576e-10 0 0 
2.90111e-10 0 0 0 0 0 0 5.7298e-10 0 
0 0 0 0 0 0 0 0 0 
0 0 0 0 0 0 0 0 0 
0 0 0 0 0 0 0 0 0 
0 1.47296e-11 0 0 0 0 2.35922e-10 0 0 
0 0 0 0 0 0 0 0 0 
0 0 0 0 0 0 0 0 0 
0 0 0 0 0 0 0 0 0 
0 0 0 0 0 0 0 0 0 
0 0 0 0 0 0 0 0 0 
2.04817e-10 0 0 0 0 0 0 0 0 
0 0 0 0 0 0 0 0 0 
0 0 0 0 0 0 0 4.83084e-10 0 
0 0 0 0 0 0 0 0 0 
0 0 0 0 0 0 0 0 0 
0 0 0 0 0 5.78535e-10 0 0 0 
0 0 0 0 0 0 0 0 0 
0 0 0 0 6.50207e-10 0 3.74843e-10 0 0 
0 0 0 0 0 0 0 0 0 
0 0 0 0 0 0 0 0 0 
0 0 0 0 0 0 0 0 0 
0 0 0 0 0 0 0 0 0 
0 0 0 0 0 0 0 0 0 
0 0 0 0 0 0 0 0 0 
0 0 0 0 0 0 0 0 0 
0 0 0 0 0 0 0 0 0 
3.68598e-10 0 0 0 0 0 0 0 0 
0 0 0 7.98241e-11 0 0 0 0 0 
0 0 3.0008e-11 0 0 0 0 0 0 
0 0 0 0 0 0 0 0 0 
0 0 0 0 0 0 0 0 0 
0 0 0 0 0 0 0 0 0 
0 0 0 0 0 0 0 0 0 
5.85793e-10 0 3.11935e-10 1.34886e-10 0 0 0 0 0 
0 0 0 0 0 0 0 0 0 
0 0 0 0 0 0 0 0 0 
0 0 0 3.42565e-10 0 0 0 0 0 
0 0 0 0 0 0 7.38346e-10 0 0 
0 0 0 0 0 0 0 0 0 
0 0 0 0 0 0 0 0 0 
0 0 0 0 0 0 0 0 0 
0 0 0 0 0 0 0 0 0 
0 0 0 0 0 0 0 0 0 
0 0 0 0 0 0 0 0 0 
0 0 0 0 0 0 0 0 0 
0 0 0 0 0 0 0 0 0 
0 0 0 0 0 0 0 0 0 
0 0 0 0 0 0 0 0 0 
0 0 5.48741e-10 0 0 0 0 0 0 
0 0 0 0 0 0 0 0 0 
0 0 0 0 0 0 0 0 0 
0 0 0 0 0 0 0 0 0 
3.13982e-10 0 0 0 0 0 0 6.57394e-10 0 
0 0 0 0 0 0 0 0 0 
0 0 0 0 0 0 0 0 0 
2.73182e-10 0 0 0 2.66585e-10 0 0 0 0 
0 0 0 0 0 0 0 0 0 
0 0 0 0 0 0 0 0 0 
0 0 0 0 0 0 0 0 0 
0 0 0 4.92369e-10 0 0 8.35001e-10 0 0 
0 0 0 0 0 0 0 0 0 
0 0 0 0 0 0 0 0 0 
0 0 0 0 0 0 0 0 0 
0 0 0 0 0 0 0 5.66388e-10 0 
0 0 0 1.89793e-10 0 0 0 0 0 
0 0 0 0 0 3.72207e-10 0 0 0 
0 0 0 0 0 0 0 0 0 
0 0 0 0 0 0 0 9.24519e-10 0 
0 0 0 0 0 0 0 0 0 
0 0 0 0 0 0 0 0 0 
0 0 7.58298e-10 0 0 0 0 0 0 
0 0 0 0 0 0 0 0 0 
0 0 0 0 0 0 0 0 0 
0 0 4.07375e-10 0 0 0 0 0 0 
0 0 0 0 0 0 0 0 0 
0 0 0 0 0 0 3.55723e-10 0 0 
0 0 0 0 0 2.57053e-10 0 0 0 
3.75955e-10 0 0 0 0 0 0 0 0 
0 0 0 0 5.48326e-10 0 0 0 0 
0 0 0 0 0 0 0 0 0 
0 0 0 0 0 0 0 0 0 
0 0 0 0 0 0 0 0 0 
0 3.9484e-10 0 1.31735e-10 0 0 0 0 0 
0 0 0 4.43968e-10 0 0 0 0 0 
0 0 0 0 0 0 0 0 0 
0 0 0 0 0 0 0 0 0 
0 0 4.93451e-10 0 0 0 0 0 0 
0 0 0 0 0 0 0 0 0 
0 0 0 0 0 0 0 0 0 
0 0 2.47695e-10 0 0 0 0 0 0 
0 0 0 0 0 0 0 0 0 
0 0 0 0 0 0 4.57604e-10 0 0 
0 0 0 0 0 0 0 7.58771e-10 0 
0 0 0 0 0 0 0 0 0 
0 0 0 0 0 0 0 0 0 
0 0 0 0 0 0 0 0 0 
0 0 0 0 0 1.16746e-10 0 0 0 
0 7.12397e-10 0 0 0 0 0 0 0 
0 0 0 0 0 0 0 0 0 
0 0 0 0 0 3.50042e-10 0 0 0 
0 0 0 0 0 0 0 0 0 
0 0 0 0 0 0 0 
feature_5 1 2500 float
0 0 0 0 0 0 0 0 0 
0 0 0 0 0 0 0 0 0 
0 0 0 0 0 0 0 0 0 
0 0 0 0 0 0 3.03203e-10 0 0 
0 0 0 0 0 2.26478e-10 0 0 0 
0 0 0 0 0 0 0 0 0 
0 8.60094e-10 0 0 0 0 0 0 0 
0 0 0 0 0 0 0 0 0 
0 0 0 0 0 0 0 0 0 
0 0 0 0 0 0 0 9.70342e-10 0 
0 0 8.00554e-10 0 0 0 0 0 0 
3.28676e-08 0 7.2102e-10 0 0 0 0 0 0 
0 0 2.01545e-11 0 3.4146e-10 0 0 0 0 
0 0 0 0 0 0 0 0 0 
0 0 0 0 0 0 0 0 0 
0 0 0 0 0 0 4.76359e-10 0 0 
0 0 0 0 0 0 0 0 5.77902e-10 
0 0 0 0 0 0 0 0 0 
0 0 0 0 0 0 0 0 0 
0 0 0 0 0 0 0 0 0 
0 0 0 0 0 0 1.49715e-10 0 0 
0 0 0 3.04635e-08 0 0 1.04222e-10 0 2.50033e-08 
0 0 2.86136e-11 3.96007e-10 0 0 0 0 0 
0 0 0 0 0 0 0 0 0 
0 0 1.39803e-08 0 0 0 0 0 0 
0 0 0 0 0 0 0 0 9.11626e-10 
0 0 0 0 0 0 0 0 0 
0 0 1.50778e-08 0 0 0 0 0 0 
0 0 0 0 0 0 0 4.01418e-10 0 
0 0 0 0 0 0 0 0 0 
0 0 0 0 0 0 0 0 0 
0 0 0 0 0 0 0 0 0 
0 0 0 0 5.11406e-10 0 0 0 0 
0 0 0 0 0 0 0 0 0 
0 0 0 0 0 0 0 0 0 
0 0 0 0 0 0 0 0 0 
0 0 0 0 0 0 0 0 0 
0 0 0 0 0 0 0 1.38474e-08 0 
0 0 0 5.04173e-10 0 0 0 0 0 
0 0 0 0 0 0 0 0 0 
0 1.31315e-10 0 0 0 0 0 0 0 
3.17808e-10 0 0 0 0 0 0 0 0 
0 0 0 0 0 0 0 0 0 
0 0 0 0 5.81686e-10 0 0 0 0 
0 0 0 0 0 0 1.85955e-08 0 0 
0 0 0 1.2702e-07 0 0 0 0 4.15451e-09 
0 0 0 6.83059e-10 0 3.31589e-10 0 0 0 
0 0 0 0 0 0 0 0 4.73847e-10 
0 0 0 0 0 0 0 0 0 
0 0 0 0 0 0 0 0 0 
0 0 0 0 0 0 0 0 0 
0 4.8983e-10 0 0 2.49599e-10 0 0 0 0 
0 0 0 0 0 0 0 0 0 
0 0 0 0 0 0 0 0 0 
0 0 0 0 0 0 0 0 0 
1.95264e-10 0 0 6.95628e-10 0 0 0 0 0 
2.33628e-08 0 0 0 0 0 0 0 0 
0 0 0 0 0 0 0 9.86383e-10 0 
0 5.33035e-10 0 0 0 0 0 0 3.60785e-10 
0 2.54584e-10 0 0 0 0 0 2.28269e-10 0 
0 0 0 0 0 0 0 1.87348e-08 0 
0 0 0 0 0 3.71301e-10 0 0 0 
0 0 0 0 0 0 0 0 0 
0 0 0 0 0 0 0 0 0 
0 0 0 0 0 0 0 0 0 
0 0 0 0 0 0 0 0 0 
0 0 0 0 0 0 0 0 0 
0 0 0 0 0 0 0 0 0 
0 0 0 0 0 0 0 0 0 
0 0 0 0 0 0 0 0 0 
0 0 0 0 0 0 0 0 0 
0 0 0 0 0 0 5.31326e-10 1.81936e-10 0 
0 0 0 0 0 0 0 0 0 
0 0 0 0 0 0 0 0 0 
0 0 0 9.62753e-10 0 0 8.37922e-10 0 0 
0 3.89463e-10 0 0 0 0 7.52149e-10 0 0 
0 0 0 0 0 0 0 0 0 
0 0 0 0 0 0 0 0 0 
2.49474e-08 0 0 0 0 0 0 0 0 
0 0 0 0 0 0 0 0 0 
5.49001e-10 0 0 0 0 0 0 0 0 
0 0 6.24421e-10 0 0 0 0 0 0 
0 0 0 0 0 0 2.62408e-08 0 0 
0 0 0 0 0 0 0 0 0 
0 0 0 0 0 0 0 8.77876e-07 3.92439e-07 
0 4.65079e-10 0 0 0 0 0 0 0 
0 0 0 0 0 0 0 0 0 
0 0 0 0 0 0 0 1.52999e-10 0 
0 0 0 0 0 0 0 0 0 
0 0 0 0 0 0 0 0 0 
0 0 0 0 0 0 0 0 0 