# vtk DataFile Version 5.1
vtk output
ASCII
DATASET STRUCTURED_POINTS
DIMENSIONS 100 100 1
SPACING 1 1 1
ORIGIN 0 0 0
POINT_DATA 10000
FIELD FieldData 6
feature_1 1 10000 float
0 0 0 0 0 0 0 0 0 
0 0 0 0 0 0 0 0 0 
0 0 0 0 0 0 0 0 0 
0 0 0 0 0 0 0 0 0 
0 0 0 0 0 0 0 0 0 
0 0 0 0 0 0 0 0 0 
0 0 0 0 0 0 0 0 0 
0 0 0 0 0 0 0 0 0 
0 0 0 0 0 0 0 0 0 
0 0 0 0 0 0 0 0 0 
0 0 0 0 0 0 0 0 0 
0 0 0 0 0 0 0 0 0 
0 0 0 0 0 0 0 0 0 
0 0 0 0 0 0 0 0 0 
0 0 0 0 0 0 0 0 0 
0 0 0 0 0 0 0 0 0 
0 0 0 0 0 0 0 0 0 
0 0 0 0 0 0 0 0 0 
0 0 0 0 0 0 0 0 0 
0 0 0 0 0 0 0 0 0 
0 0 0 0 0 0 0 0 0 
0 0 0 0 0 0 0 0 0 
0 0 0 0 0 0 0 0 0 
0 0 0 0 0 0 0 0 0 
0 0 0 0 0 0 0 0 0 
0 0 0 0 0 0 0 0 0 
0 0 0 0 0 0 0 0 0 
0 0 0 0 0 0 0 0 0 
0 0 0 0 0 0 0 0 0 
0 0 0 0 0 0 0 0 0 
0 0 0 0 0 0 0 0 0 
0 0 0 0 0 0 0 0 0 
0 0 0 0 0 0 0 0 0 
0 0 0 0 0 0 0 0 0 
0 0 0 0 0 0 0 0 0 
0 0 0 0 0 0 0 0 0 
0 0 0 0 0 0 0 0 0 
0 0 0 0 0 0 0 0 0 
0 0 0 0 0 0 0 0 0 
0 0 0 0 0 0 0 0 0 
0 0 0 0 0 0 0 0 0 
0 0 0 0 0 0 0 0 0 
0 0 0 0 0 0 0 0 0 
0 0 0 0 0 0 0 0 0 
0 0 0 0 0 0 0 0 0 
0 0 0 0 0 0 0 0 0 
0 0 0 0 0 0 0 0 0 
0 0 0 0 0 0 0 0 0 
0 0 0 0 0 0 0 0 0 
0 0 0 0 0 0 0 0 0 
0 0 0 0 0 0 0 0 0 
0 0 0 0 0 0 0 0 0 
0 0 0 0 0 0 0 0 0 
0 0 0 0 0 0 0 0 0 
0 0 0 0 0 0 0 0 0 
0 0 0 0 0 0 0 0 0 
0 0 0 0 0 0 0 0 0 
0 0 0 0 0 0 0 0 0 
0 0 0 0 0 0 0 0 0 
0 0 0 0 0 0 0 0 0 
0 0 0 0 0 0 0 0 0 
0 0 0 0 0 0 0 0 0 
0 0 0 0 0 0 0 0 0 
0 0 0 0 0 0 0 0 0 
0 0 0 0 0 0 0 0 0 
0 0 0 0 0 0 0 0 0 
0 0 0 0 0 0 0 0 0 
0 0 0 0 0 0 0 0 0 
0 0 0 0 0 0 0 0 0 
0 0 0 0 0 0 0 0 0 
0 0 0 0 0 0 0 0 0 
0 0 0 0 0 0 0 0 0 
0 0 0 0 0 0 0 0 0 
0 0 0 0 0 0 0 0 0 
0 0 0 0 0 0 0 0 0 
0 0 0 0 0 0 0 0 0 
0 0 0 0 0 0 0 0 0 
0 0 0 0 0 0 0 0 0 
0 0 0 0 0 0 0 0 0 
0 0 0 0 0 0 0 0 0 
0 0 0 0 0 0 0 0 0 
0 0 0 0 0 0 0 0 0 
0 0 0 0 0 0 0 0 0 
0 0 0 0 0 0 0 0 0 
0 0 0 0 0 0 0 0 0 
0 0 0 0 0 0 0 0 0 
0 0 0 0 0 0 0 0 0 
0 0 0 0 0 0 0 0 0 
0 0 0 0 0 0 0 0 0 
0 0 0 0 0 0 0 0 0 
0 0 0 0 0 0 0 0 0 
0 0 0 0 0 0 0 0 0 
0 0 0 0 0 0 0 0 0 
0 0 0 0 0 2.24221e-10 0 0 0 
3.99133e-10 0 0 0 0 0 0 0 0 
0 0 0 0 0 0 0 0 0 
0 0 0 0 0 0 0 0 0 
0 0 0 0 0 0 0 0 0 
0 0 0 0 0 0 0 0 0 
0 0 0 0 0 0 0 0 0 
0 0 0 0 0 0 0 0 0 
0 0 0 0 0 0 0 0 0 
0 0 0 0 0 0 0 0 0 
0 0 0 0 0 0 0 0 0 
0 0 0 0 0 0 0 0 0 
0 0 0 3.74332e-10 0 0 0 0 0 
0 0 0 0 0 0 9.03273e-10 0 0 
0 0 0 0 0 0 0 0 0 
0 0 0 0 0 0 0 0 0 
0 0 0 0 0 0 0 0 0 
0 0 0 0 0 0 0 0 0 
0 0 0 0 0 0 0 0 0 
0 0 0 0 0 0 0 0 0 
0 0 0 0 0 0 0 0 0 
0 0 0 0 0 0 0 0 0 
0 0 0 0 0 0 0 0 0 
0 1.89601e-09 0 0 0 0 0 0 0 
0 0 0 0 0 0 0 2.66272e-09 0 
0 0 0 0 0 0 0 0 0 
0 0 0 0 0 5.70286e-10 0 0 0 
0 0 0 0 0 0 0 0 0 
0 0 0 0 0 0 0 0 0 
0 0 0 0 0 0 0 0 0 
0 0 0 0 0 0 0 0 0 
0 0 0 0 0 0 0 0 0 
0 0 0 6.01806e-10 0 0 0 0 0 
0 0 0 0 0 0 0 0 1.76012e-09 
0 0 0 0 0 0 0 0 0 
0 0 0 0 0 0 0 0 0 
0 0 0 0 0 0 0 0 0 
0 0 0 0 5.66526e-10 0 0 0 0 
0 0 0 0 0 0 0 0 0 
0 0 0 0 0 0 0 0 0 
0 0 0 0 0 0 0 0 0 
0 0 0 0 0 0 0 0 0 
0 0 0 0 0 0 0 0 0 
0 0 0 0 0 0 0 0 0 
0 0 0 0 0 0 0 0 0 
0 0 0 8.48725e-07 7.52557e-09 2.29445e-09 0 0 0 
0 0 0 0 0 0 2.26512e-09 0 6.83242e-07 
1.49596e-09 0 0 0 0 0 0 0 0 
0 0 0 0 0 0 0 0 0 
0 0 0 0 0 0 0 0 0 
0 0 0 0 0 0 0 0 0 
0 0 0 0 0 0 0 0 0 
0 0 0 0 0 0 0 0 0 
0 0 0 0 0 0 0 0 0 
0 0 0 0 0 0 0 0 0 
0 0 0 1.60202e-09 0 0 0 0 0 
0 0 0 8.95097e-07 0 7.17555e-09 0 0 0 
8.21542e-10 0 0 0 0 0 0 0 0 
0 0 0 1.2946e-09 0 0 0 5.96023e-10 0 
0 0 0 0 3.69067e-10 5.58793e-10 0 0 0 
0 1.61469e-09 0 0 0 0 0 0 0 
0 0 0 0 0 0 0 0 0 
0 0 0 0 0 0 0 0 0 
0 0 0 0 0 0 0 0 0 
0 0 0 0 0 0 0 0 0 
0 0 0 0 4.88956e-09 6.85554e-07 0 1.55279e-09 0 
0 0 0 1.64923e-09 0 8.91248e-09 0 0 1.36085e-09 
0 0 0 0 0 0 0 0 1.47346e-09 
0 0 0 0 0 0 0 0 7.38987e-10 
0 0 0 0 0 0 0 0 0 
0 0 0 0 0 0 1.70982e-09 5.67503e-10 0 
6.84881e-07 0 0 9.29147e-10 0 0 0 0 0 
0 0 0 0 0 0 0 0 0 
0 0 0 0 0 0 0 0 0 
0 0 0 0 0 0 0 0 0 
0 0 0 0 0 0 0 0 0 
0 0 0 0 0 0 0 0 0 
0 0 0 0 0 4.28482e-09 6.85231e-07 5.28617e-09 2.9852e-09 
0 0 0 0 0 0 8.56311e-07 0 0 
0 0 0 0 0 0 0 0 0 
0 0 1.48735e-09 0 0 0 0 0 0 
0 0 0 0 1.08789e-09 0 0 0 0 
0 0 0 4.82219e-10 5.19723e-10 0 0 0 0 
0 0 0 0 0 0 0 0 0 
0 0 0 0 0 0 0 0 0 
0 0 0 0 0 0 0 0 0 
0 0 0 0 0 0 0 0 0 
0 0 0 0 0 0 1.98212e-09 0 0 
1.01131e-09 0 0 0 0 0 2.49814e-09 0 0 
0 2.39364e-09 8.89199e-10 0 0 7.93071e-07 1.35481e-08 0 0 
0 0 7.34048e-07 0 0 1.37498e-09 0 0 0 
0 0 0 0 0 0 0 0 2.04211e-09 
0 2.47583e-09 0 7.95913e-10 0 0 0 0 0 
0 0 0 0 0 0 0 0 0 
0 0 0 0 0 0 0 0 0 
0 0 0 0 0 0 0 0 0 
0 0 0 0 0 0 0 0 0 
0 0 0 0 0 0 0 0 0 
0 0 0 0 0 0 1.29752e-09 5.80719e-09 0 
1.90004e-09 0 0 0 0 0 0 0 2.51013e-09 
1.49285e-09 0 0 0 0 0 0 0 0 
0 0 0 0 0 0 1.29982e-09 3.96655e-10 0 
0 0 0 5.1726e-10 0 0 0 0 0 
7.66366e-07 8.37151e-09 0 0 0 0 0 0 7.08209e-07 
0 0 0 0 0 0 0 0 0 
0 0 0 0 0 0 0 0 0 
0 0 0 0 0 0 0 0 0 
0 0 0 0 0 0 0 0 0 
0 0 0 0 0 0 0 0 0 
0 0 0 0 0 3.98834e-09 0 1.54486e-09 0 
0 0 0 0 0 0 0 0 1.80003e-09 
0 1.58377e-09 0 5.07327e-09 5.85307e-09 0 0 0 0 
0 0 0 0 0 0 1.94522e-09 0 0 
0 0 0 0 0 1.38351e-09 0 0 0 
0 0 2.83865e-09 0 0 0 0 0 0 
0 4.97292e-10 2.16174e-09 2.56102e-09 0 0 0 0 0 
0 0 0 0 0 0 0 0 0 
0 0 0 0 0 0 0 0 0 
0 0 0 0 0 0 0 0 0 
0 0 0 0 0 0 0 0 0 
0 0 8.53201e-10 0 0 0 0 2.23822e-09 0 
3.33381e-09 6.88549e-07 0 0 0 0 0 0 0 
0 0 0 0 6.89738e-07 0 0 0 0 
0 0 9.82693e-07 0 2.36369e-09 7.68304e-07 0 0 0 
0 0 0 0 0 0 0 1.90519e-09 0 
0 2.00431e-09 8.52946e-10 0 0 1.33125e-09 0 2.00637e-09 0 
2.19038e-09 0 9.86564e-10 1.41191e-09 1.129e-09 0 0 0 0 
0 0 0 0 0 0 0 0 0 
0 0 0 0 0 0 0 0 0 
0 0 0 0 0 0 0 0 0 
0 0 0 0 0 0 0 0 0 
0 0 0 9.295e-10 0 0 6.85456e-07 5.00558e-09 0 
0 3.03296e-09 3.84896e-09 0 0 0 0 0 0 
0 0 0 1.45131e-09 0 0 0 0 1.91188e-09 
0 0 0 0 0 0 1.88558e-09 0 1.17506e-09 
0 0 1.08834e-09 0 0 0 0 0 0 
0 0 4.52651e-10 0 0 4.03979e-10 8.83929e-10 0 0 
0 7.09819e-07 0 0 0 0 0 0 0 
0 0 0 0 0 0 1.54279e-09 1.70281e-09 0 
0 0 0 0 0 0 0 0 0 
0 0 0 0 0 0 0 0 0 
0 0 0 0 7.6101e-11 0 0 0 0 
0 0 0 0 0 0 0 0 5.71311e-09 
2.44429e-09 0 1.36961e-09 0 1.49556e-09 8.1466e-10 0 0 0 
0 8.8329e-10 0 0 0 0 0 0 0 
2.19954e-09 0 0 0 0 0 0 4.04059e-09 5.47153e-10 
0 0 0 0 0 0 0 0 0 
0 0 7.86485e-10 0 0 0 0 0 0 
0 0 0 6.42755e-10 0 0 0 0 1.63765e-09 
0 0 0 0 0 0 0 5.16298e-09 0 
0 0 0 0 0 0 0 0 0 
0 0 0 0 0 0 0 0 0 
0 0 0 0 0 0 0 0 0 
0 0 0 5.58803e-10 1.67366e-09 0 0 0 0 
0 0 0 0 0 0 0 0 0 
0 0 0 0 0 0 1.12186e-09 8.90432e-10 0 
0 0 2.27867e-09 0 0 1.7601e-09 0 0 0 
0 0 0 0 0 0 0 0 0 
0 0 3.41577e-10 0 0 0 0 5.17252e-09 0 
0 0 0 0 0 1.83069e-09 0 0 6.32765e-10 
0 0 0 0 0 0 0 0 0 
7.66244e-07 0 1.82495e-09 0 0 0 0 0 0 
0 0 0 0 0 0 0 0 0 
0 0 0 0 0 0 0 0 0 
0 0 0 0 0 1.65313e-09 1.57955e-09 0 0 
1.04134e-09 0 0 0 0 0 0 1.87859e-09 3.8375e-10 
0 0 4.32268e-10 0 0 8.8955e-10 8.35307e-10 0 0 
0 0 0 0 1.88676e-09 0 0 9.38969e-07 9.35957e-07 
0 0 0 0 0 0 6.23215e-10 0 0 
0 0 0 0 0 0 0 0 0 
0 0 0 4.02719e-10 0 0 0 0 0 
0 6.95019e-07 8.52666e-09 0 0 0 0 0 2.95053e-09 
6.4153e-09 0 0 0 0 0 0 0 0 
0 0 0 0 0 0 0 0 0 
0 0 0 0 0 0 0 0 0 
0 0 0 0 0 0 0 1.61492e-09 0 
0 0 0 0 0 2.92385e-10 0 2.62985e-10 0 
1.73802e-09 0 0 0 0 0 0 8.73661e-10 0 
0 0 0 0 0 1.57877e-09 0 0 3.61967e-09 
0 0 2.54427e-09 0 3.76397e-10 0 6.84104e-07 2.09255e-09 0 
1.18666e-09 0 0 0 0 0 0 0 0 
0 0 0 0 0 0 0 0 0 
0 0 1.86902e-09 5.72196e-10 3.88101e-09 0 0 0 0 
1.39171e-09 0 7.74085e-07 1.95361e-09 0 2.71108e-10 0 0 0 
0 0 0 0 0 0 0 0 0 
0 0 0 0 0 0 0 0 0 
0 1.11119e-09 0 0 1.45321e-09 0 0 0 0 
0 0 0 0 0 0 0 0 0 
0 0 3.18848e-09 0 0 0 1.28803e-09 0 0 
0 0 0 0 0 0 0 2.53862e-09 0 
4.81466e-09 0 0 0 2.53746e-09 0 0 2.89085e-09 0 
0 0 0 0 0 0 0 6.74047e-10 0 
0 0 2.09118e-09 1.39018e-09 0 0 1.05203e-08 6.93873e-07 5.7057e-09 
3.12586e-10 0 0 0 0 0 0 8.33099e-10 6.56177e-10 
0 0 4.53e-09 0 0 6.29336e-10 0 0 0 
0 0 0 0 0 0 0 0 0 
0 0 0 0 0 0 0 0 0 
0 0 0 0 0 0 0 0 0 
7.66508e-07 0 0 2.40896e-10 0 0 0 0 0 
0 0 4.77776e-09 6.85956e-07 0 0 2.05166e-09 3.41095e-09 7.44614e-07 
0 2.89932e-09 0 0 0 0 0 1.29854e-09 0 
0 0 0 0 0 0 0 0 0 
0 0 0 0 0 0 0 0 5.46931e-10 
0 0 1.52202e-09 0 2.39871e-09 0 0 0 3.75066e-09 
0 0 0 0 0 0 0 0 7.77596e-10 
0 0 0 3.3655e-09 0 0 3.23897e-09 0 0 
0 0 0 0 0 0 0 0 0 
0 0 0 0 0 0 0 0 0 
0 0 0 6.99985e-07 0 0 0 0 8.30896e-07 
0 0 0 0 0 0 0 0 0 
0 0 0 1.46917e-09 0 0 0 0 0 
0 0 7.52313e-07 0 0 4.08102e-09 0 0 0 
0 1.41179e-09 3.41661e-09 0 0 0 0 0 0 
0 0 0 0 0 0 0 0 0 
0 1.20094e-09 0 0 0 0 0 0 0 
0 1.14978e-09 0 0 0 6.95917e-07 0 0 0 
0 0 0 0 0 1.16311e-09 0 0 0 
2.31062e-10 0 0 0 0 0 0 0 0 
0 0 0 0 0 0 0 0 0 
0 0 1.9188e-09 4.0589e-09 0 0 0 0 0 
0 0 4.25023e-09 2.4289e-09 0 0 0 0 0 
0 0 0 0 1.38823e-09 0 0 0 0 
1.99326e-09 0 0 0 0 0 2.84053e-09 6.54228e-09 4.05351e-09 
0 6.71442e-09 7.50483e-07 0 0 0 0 0 0 
0 0 0 0 4.32108e-09 2.9041e-09 4.63224e-09 1.69488e-09 0 
0 0 0 0 0 0 0 0 0 
0 0 2.62878e-09 0 0 0 0 0 0 
0 0 0 0 0 7.15274e-07 0 0 0 
0 0 0 0 0 0 0 0 0 
0 0 0 0 0 0 0 0 0 
0 0 0 6.76806e-10 0 0 1.43349e-09 1.94706e-09 7.58331e-07 
8.64903e-09 0 7.94323e-07 4.94953e-09 2.69718e-09 0 0 0 0 
0 0 0 0 0 0 2.7544e-10 0 0 
0 1.12461e-09 1.57271e-09 0 0 0 0 0 0 
8.79414e-10 0 0 0 0 0 0 0 0 
0 0 0 0 1.25757e-09 0 6.99474e-07 5.4885e-09 3.32353e-09 
0 0 0 3.7779e-10 0 0 6.89763e-07 2.36511e-09 1.99605e-09 
0 0 7.74265e-09 4.07842e-09 2.76761e-09 0 0 0 5.91839e-10 
0 0 0 0 0 0 0 0 0 
0 0 0 0 0 0 0 0 0 
0 0 0 0 0 0 0 0 0 
0 0 1.69351e-10 0 0 0 2.71414e-09 2.91299e-09 0 
0 0 0 0 6.4699e-10 0 0 0 3.40071e-09 
0 0 3.59874e-09 2.16117e-09 0 0 0 0 0 
0 0 0 0 0 0 0 0 0 
7.48102e-07 0 0 7.72434e-07 5.24251e-09 0 0 0 0 
0 0 0 0 0 0 0 0 0 
0 0 0 2.00417e-09 0 0 5.22086e-09 0 3.87158e-09 
0 0 4.5607e-09 6.89933e-07 0 0 1.32756e-09 1.0558e-09 1.10681e-09 
0 0 0 0 0 0 0 0 0 
0 0 0 0 0 0 0 0 0 
0 0 0 0 0 0 0 0 0 
0 0 0 0 0 0 0 0 0 
0 0 0 2.12411e-09 1.43437e-09 0 0 3.56945e-09 3.52158e-10 
0 9.33368e-07 0 0 0 0 0 0 0 
0 0 0 0 0 0 0 7.70123e-07 0 
6.61023e-09 0 0 0 0 0 0 0 0 
0 0 0 0 1.8594e-09 3.31166e-09 2.05227e-09 4.56316e-09 0 
2.55717e-09 0 0 0 0 0 0 0 0 
0 0 0 0 0 0 0 1.05782e-09 0 
0 0 0 0 3.29442e-09 0 0 7.18843e-07 5.00269e-09 
0 0 0 0 0 0 0 0 0 
0 0 0 0 0 0 0 0 0 
0 0 0 0 0 0 0 0 0 
0 1.0068e-09 1.36749e-09 0 0 0 0 0 0 
4.04163e-09 0 9.48675e-07 0 0 0 0 0 1.54668e-09 
0 0 0 0 0 0 0 6.87518e-09 0 
0 0 3.17876e-09 3.20247e-09 0 0 0 0 1.40118e-09 
0 0 0 0 0 1.51283e-09 0 5.4289e-07 0 
0 0 0 0 0 0 3.05891e-09 0 0 
0 0 1.22921e-09 2.39919e-09 0 0 0 0 0 
0 0 0 0 0 0 0 0 0 
0 0 0 0 0 0 0 0 0 
0 0 0 0 0 0 0 0 0 
0 0 0 0 0 0 0 0 0 
0 0 0 0 0 0 6.08071e-10 0 0 
0 0 0 0 0 6.80611e-09 7.28476e-07 4.70244e-09 0 
0 6.54483e-10 0 0 0 0 4.35367e-10 0 0 
0 0 0 0 0 0 0 0 0 
0 0 0 0 3.59741e-10 0 0 0 0 
2.27664e-09 0 0 0 7.99918e-07 0 8.63387e-07 0 0 
0 0 0 0 0 0 0 0 0 
0 0 0 0 0 4.16489e-09 6.96208e-07 0 0 
6.5755e-10 0 0 0 0 0 0 0 0 
0 0 0 0 0 0 0 0 0 
0 0 0 0 0 0 0 0 0 
0 0 0 0 0 0 0 0 0 
2.3917e-09 1.75162e-09 0 0 6.50004e-10 5.48542e-09 0 5.21777e-09 0 
0 0 0 0 0 0 0 0 0 
9.64406e-07 9.80674e-07 0 4.34918e-09 0 0 0 0 5.14067e-09 
0 0 0 0 7.13193e-10 0 0 0 0 
0 1.77771e-09 2.17032e-09 0 0 0 0 4.4171e-09 0 
0 0 0 0 0 1.25731e-09 0 0 0 
0 0 0 0 4.57982e-10 0 2.70428e-09 0 0 
2.63402e-09 3.00119e-09 0 0 0 0 0 0 0 
0 0 0 0 0 0 0 0 0 
0 0 0 0 0 0 0 0 0 
0 0 0 0 0 0 0 0 0 
0 0 0 2.61226e-09 0 0 0 0 0 
0 0 0 0 0 0 0 0 3.34857e-09 
0 0 0 0 4.84336e-09 0 0 0 4.04601e-09 
0 0 2.42021e-09 0 4.13112e-09 0 0 0 0 
0 2.92042e-09 0 0 0 0 0 0 4.01762e-09 
9.44602e-07 0 0 7.8578e-07 0 1.71632e-09 0 0 0 
0 0 0 0 0 0 0 0 0 
0 0 0 0 0 0 0 0 0 
0 0 0 0 0 0 0 0 0 
0 0 0 0 0 0 0 0 0 
0 0 0 0 0 0 0 0 0 
0 0 0 4.21836e-09 7.62087e-07 0 9.89248e-09 0 0 
4.73453e-09 4.03014e-09 0 2.70568e-09 0 0 0 0 0 
0 0 0 0 0 0 0 0 0 
0 8.15192e-07 0 0 0 6.99429e-07 0 8.99361e-10 0 
0 8.10081e-10 0 0 1.57708e-09 0 0 0 0 
8.93366e-07 0 0 0 3.22322e-09 0 0 0 0 
0 0 0 0 0 0 0 0 0 
0 0 0 0 0 0 0 0 0 
0 0 0 0 0 0 0 0 0 
0 0 0 0 0 0 0 0 0 
0 0 0 0 0 0 0 0 0 
0 0 1.30306e-09 0 0 0 0 8.33963e-07 5.08863e-09 
0 0 0 6.938e-07 0 0 1.7157e-09 5.62233e-10 0 
0 1.81184e-09 0 0 7.59488e-07 0 0 0 0 
0 0 1.16914e-08 0 0 0 4.70177e-09 0 0 
0 8.6625e-11 0 0 0 7.98739e-10 7.73689e-10 0 0 
0 0 9.90429e-10 0 8.00241e-07 7.30417e-09 0 0 0 
0 0 0 0 0 0 0 0 0 
0 0 0 0 0 0 0 0 0 
0 0 0 0 0 0 0 0 0 
0 0 0 0 0 0 0 0 0 
0 0 0 0 0 0 1.18677e-09 0 0 
0 0 0 0 0 0 0 0 6.27348e-09 
3.6006e-09 0 0 4.01536e-09 4.91295e-09 0 0 0 0 
0 0 5.87041e-10 0 0 7.57859e-09 0 0 9.14761e-09 
0 9.48089e-07 0 8.81333e-07 0 4.60149e-09 0 0 4.36704e-09 
0 0 0 0 0 0 0 0 0 
0 0 2.9831e-09 0 0 0 0 0 0 
0 0 0 0 0 0 0 0 0 
0 0 0 0 0 0 0 0 0 
0 0 0 0 0 0 0 0 0 
0 0 0 0 0 0 0 0 0 
0 0 0 0 0 0 0 0 0 
0 3.80994e-10 0 0 0 0 2.29967e-09 2.48085e-09 1.16525e-08 
7.81834e-07 0 0 1.72253e-09 0 0 0 1.34291e-09 0 
0 0 0 0 6.10528e-10 0 0 1.02271e-08 0 
0 9.24437e-07 0 0 0 0 0 0 0 
0 0 0 0 0 7.08698e-07 0 3.71569e-09 0 
0 2.01975e-09 0 0 4.76215e-09 0 0 4.40272e-10 0 
0 4.18131e-10 0 0 0 0 0 0 0 
0 0 0 0 0 0 0 8.66695e-10 0 
0 0 0 0 0 0 0 0 0 
0 0 0 0 0 0 0 0 0 
0 0 0 0 0 0 0 6.82393e-07 0 
0 0 0 0 0 0 0 0 0 
0 0 0 0 2.00381e-09 1.34575e-09 2.49997e-09 0 0 
6.31781e-10 7.31075e-10 0 7.59295e-10 0 5.61308e-10 0 0 0 
8.08075e-07 0 0 0 0 1.08448e-09 0 0 0 
0 0 0 1.8063e-09 0 0 5.53168e-09 0 3.97261e-09 
0 0 0 0 0 0 2.91516e-09 0 1.7173e-09 
1.00465e-09 0 0 0 0 0 0 0 0 
0 0 0 0 0 0 0 0 0 
0 0 0 0 0 0 0 0 0 
0 0 0 0 0 0 0 0 0 
0 0 0 0 0 0 0 2.46939e-09 0 
0 0 0 0 0 0 0 7.34627e-10 0 
0 3.84414e-09 0 0 0 0 0 0 0 
0 0 0 0 7.94105e-10 0 0 3.36328e-09 0 
0 0 0 0 0 0 0 1.51843e-09 0 
0 0 0 0 0 0 0 0 0 
5.03984e-09 0 0 9.08529e-07 0 9.03857e-07 1.01226e-08 0 9.78791e-10 
0 0 0 0 0 0 0 0 5.9283e-10 
0 0 0 0 3.94812e-09 0 0 0 0 
2.34485e-09 8.6666e-10 0 0 0 0 0 0 0 
0 0 0 0 0 0 0 0 0 
0 0 0 0 0 0 0 2.55981e-10 0 
0 0 0 0 1.73981e-09 3.38475e-09 0 0 0 
0 0 0 0 0 0 0 0 0 
0 0 0 0 6.29563e-10 0 8.09624e-10 0 0 
2.13672e-09 0 5.08878e-09 0 0 4.63778e-09 0 0 0 
0 0 0 0 0 0 0 0 0 
7.18294e-07 3.04534e-09 0 0 0 9.46887e-07 0 4.16795e-09 2.97681e-09 
0 0 0 0 0 0 0 0 3.19296e-10 
0 0 1.83901e-09 0 4.61069e-09 0 0 0 7.64513e-07 
1.9462e-09 0 0 0 0 0 0 0 0 
0 0 0 0 0 0 0 0 0 
0 0 0 0 0 0 0 0 0 
0 0 0 0 0 0 0 6.82683e-07 0 
0 1.17907e-09 0 0 0 4.50648e-10 0 0 0 
0 0 0 0 6.87734e-07 0 0 0 0 
0 0 0 0 9.73383e-07 9.57574e-07 0 0 0 
0 0 0 0 0 0 0 0 0 
3.10039e-09 1.02874e-08 0 0 0 0 0 0 2.01846e-09 
0 0 0 0 0 4.91942e-10 0 0 0 
1.55075e-09 0 0 0 0 1.37394e-08 7.45427e-07 0 0 
0 0 4.98925e-10 0 3.75205e-11 0 0 0 0 
0 0 0 0 0 0 0 0 0 
0 0 0 0 0 0 0 0 0 
0 0 0 0 0 0 0 0 2.0879e-09 
0 0 0 0 0 0 0 0 0 
0 0 0 0 2.90395e-09 0 0 2.46706e-09 0 
0 0 0 0 0 1.24437e-08 0 0 0 
0 0 0 0 0 0 0 3.34671e-10 0 
0 0 0 0 0 0 0 0 0 
0 0 0 0 0 0 0 0 0 
0 0 1.8286e-09 0 0 0 0 2.07022e-09 0 
5.40848e-09 0 7.58079e-07 0 0 0 0 0 0 
0 0 0 0 0 0 0 0 0 
0 0 0 0 0 0 0 0 0 
0 0 0 0 0 0 0 0 0 
0 0 0 0 0 0 0 0 0 
0 0 0 0 0 2.83021e-09 0 0 9.1803e-10 
0 0 0 0 0 0 0 0 3.56265e-09 
7.59423e-10 0 0 8.23561e-10 0 4.86557e-10 0 0 0 
0 0 0 0 0 0 1.96204e-09 0 3.22144e-09 
3.07729e-09 0 0 0 0 0 0 0 2.14781e-10 
0 0 0 0 0 0 7.31657e-07 0 1.63841e-09 
0 0 4.32642e-09 2.67328e-09 0 0 0 0 0 
0 0 0 0 0 0 0 0 0 
0 0 0 0 0 0 0 0 0 
0 0 0 0 0 0 0 0 6.12537e-10 
0 0 0 0 0 0 0 0 0 
0 0 4.96657e-10 1.1078e-09 0 0 0 1.99302e-09 1.67326e-09 
0 0 0 0 2.05663e-09 9.69057e-09 7.20262e-07 0 0 
0 0 1.3156e-09 0 0 0 0 0 0 
0 0 0 0 0 0 0 0 6.31972e-10 
0 0 0 0 0 0 4.00918e-09 3.50148e-09 0 
1.35332e-09 0 0 6.94243e-07 0 1.84906e-09 0 0 0 
4.09807e-09 0 0 0 0 2.56956e-09 0 0 0 
0 0 0 0 0 0 0 0 0 
0 0 0 0 0 0 0 0 0 
0 0 0 1.55708e-09 0 1.99946e-09 0 0 0 
0 0 0 0 0 0 0 0 0 
0 0 0 0 0 0 6.87657e-07 0 0 
0 0 0 0 0 0 0 0 3.43925e-09 
0 0 9.00025e-10 0 0 0 0 0 0 
0 0 0 0 0 0 0 0 0 
0 0 1.55367e-09 0 0 2.59408e-09 5.20849e-09 6.88652e-07 0 
0 0 0 0 9.61653e-09 4.2419e-09 0 0 0 
0 1.62521e-09 0 0 0 0 0 1.34484e-09 1.97805e-09 
0 0 0 0 0 0 0 0 0 
0 0 0 0 0 0 0 0 0 
0 0 0 0 0 0 6.83227e-07 4.58226e-09 0 
0 0 0 0 0 0 0 0 0 
0 0 0 0 0 1.35433e-09 0 0 0 
0 0 6.20166e-10 0 0 0 0 1.45878e-09 1.77647e-09 
2.66732e-09 0 0 0 0 0 1.656e-09 7.20168e-07 0 
0 0 0 0 0 0 0 0 0 
0 0 0 0 5.0249e-09 0 0 3.03547e-09 0 
0 0 0 9.59212e-10 0 0 0 0 0 
0 0 0 4.37194e-09 0 0 0 7.01287e-07 0 
0 0 0 0 0 0 0 0 0 
0 0 0 0 0 0 0 0 0 
0 0 0 0 8.60369e-10 0 0 0 2.6984e-09 
0 0 0 0 0 0 0 0 0 
0 0 0 0 0 0 0 0 0 
0 1.42209e-09 8.37427e-10 0 0 0 0 0 0 
3.34065e-10 0 0 0 0 0 2.50246e-09 0 0 
0 0 0 0 0 0 0 0 0 
0 0 0 0 0 6.87727e-07 4.92453e-09 4.87065e-09 0 
0 0 0 0 0 0 0 0 0 
4.09894e-09 0 6.97285e-07 3.37361e-09 0 2.10869e-09 0 1.75846e-09 0 
0 0 0 0 0 0 0 0 0 
0 0 0 0 0 0 0 0 0 
0 0 0 0 0 0 0 0 0 
1.76326e-09 0 0 0 0 0 0 0 0 
0 0 0 0 0 0 0 0 0 
1.46126e-09 0 1.09641e-09 0 0 0 0 5.37751e-10 0 
0 0 0 1.74365e-09 0 0 0 1.1865e-09 4.89584e-09 
0 0 0 1.06102e-06 9.80369e-07 0 0 5.78977e-10 0 
0 0 0 0 0 0 0 0 1.66677e-09 
1.19037e-09 1.38455e-09 0 0 0 0 0 0 0 
0 0 1.1673e-09 0 0 5.75515e-10 0 0 0 
0 0 0 0 0 0 0 0 0 
0 0 0 0 0 0 0 0 0 
0 0 0 0 0 0 0 0 2.63779e-09 
1.01624e-09 0 0 0 0 0 0 0 0 
0 0 0 0 0 0 1.29748e-09 9.81341e-10 7.20386e-10 
0 0 0 0 0 0 0 7.44519e-10 0 
0 0 0 0 0 0 0 0 0 
0 0 0 8.91869e-07 0 0 8.11737e-09 0 0 
6.68421e-10 0 0 0 0 0 0 0 7.86358e-10 
0 0 7.72536e-10 0 0 0 0 0 0 
3.22356e-09 0 1.83904e-09 0 0 0 1.32619e-09 0 0 
0 0 2.14207e-09 0 0 0 0 0 0 
0 0 0 0 0 0 0 0 0 
0 0 0 0 0 0 0 0 7.54187e-10 
0 0 0 0 0 0 0 0 0 
0 0 0 0 0 0 2.24483e-09 0 0 
0 0 0 4.12746e-10 0 0 4.68249e-09 6.85918e-07 0 
0 0 0 0 2.00468e-09 0 0 0 0 
7.12346e-07 0 4.11649e-09 0 0 0 0 0 0 
0 0 0 0 0 0 0 0 0 
5.17686e-10 0 0 5.50691e-10 0 0 0 0 5.5433e-09 
7.07549e-07 0 0 1.2456e-09 1.08272e-09 0 0 0 0 
0 6.97107e-07 0 0 0 0 0 0 0 
0 0 0 0 0 0 0 0 0 
0 0 0 0 0 0 0 0 0 
0 0 0 6.72255e-09 0 0 0 0 0 
0 0 0 0 0 0 7.21347e-07 0 0 
6.48926e-10 8.40406e-10 0 1.03136e-09 0 0 0 3.78049e-09 0 
2.95157e-09 1.73271e-10 0 0 0 0 0 1.91101e-09 0 
0 0 0 0 0 0 0 4.00164e-09 8.66638e-10 
0 0 0 0 0 0 0 0 0 
0 0 0 0 0 0 0 0 0 
0 0 5.00354e-10 3.01836e-09 4.479e-10 0 0 0 2.30654e-09 
0 1.21999e-08 0 0 0 0 0 0 0 
0 0 0 0 0 0 0 0 0 
0 0 0 0 0 0 0 0 0 
0 0 0 6.8311e-07 0 0 0 1.03651e-09 0 
0 0 0 0 7.22249e-07 0 0 0 0 
0 0 0 0 0 0 0 3.95437e-09 0 
2.47899e-09 0 0 0 0 0 1.42534e-09 0 6.96663e-07 
4.96769e-09 0 0 0 0 0 0 2.00896e-09 0 
0 0 0 9.82699e-10 0 0 4.49651e-10 0 0 
0 0 0 0 0 0 0 0 2.29036e-09 
0 0 0 0 0 2.7252e-09 0 0 5.73438e-09 
0 5.36221e-10 2.83446e-09 0 0 0 0 0 0 
0 0 0 0 0 0 0 0 0 
0 0 0 0 0 0 0 0 0 
0 0 0 6.80283e-10 2.08827e-09 0 0 0 1.16907e-09 
0 0 0 0 0 0 0 0 0 
0 2.23741e-09 0 1.8124e-09 0 0 3.99897e-09 0 0 
2.60946e-09 0 8.96046e-10 6.10022e-10 0 0 0 0 0 
0 2.59825e-09 1.51435e-09 2.63366e-10 6.01667e-10 1.52474e-09 0 0 1.1769e-09 
0 0 1.89175e-09 7.09984e-07 5.35503e-09 0 0 8.79795e-10 0 
0 0 0 0 0 0 0 0 0 
0 0 0 0 0 1.59882e-09 0 2.37852e-09 0 
6.92006e-07 0 0 0 2.03444e-09 1.19927e-09 0 0 0 
0 0 0 0 0 0 0 0 0 
0 0 0 0 0 0 0 0 0 
0 0 0 0 0 8.47157e-10 0 0 1.13065e-09 
0 0 0 3.45345e-09 0 0 6.11559e-10 0 2.1147e-09 
2.38981e-09 2.69937e-09 0 4.06987e-09 0 3.84268e-09 0 7.04115e-07 2.83823e-09 
0 0 0 4.78981e-10 0 2.47392e-09 0 0 0 
1.02159e-09 2.54067e-09 0 0 0 0 0 0 0 
0 0 0 0 0 0 0 0 1.0227e-09 
0 0 0 0 0 0 0 0 0 
0 0 0 1.0572e-06 1.16689e-06 0 0 0 0 
0 0 0 0 0 0 0 0 0 
0 0 0 0 0 0 0 0 0 
0 0 0 0 0 0 0 0 0 
0 0 0 0 0 0 0 0 0 
0 0 0 0 0 7.54296e-07 2.38576e-09 0 2.15221e-09 
0 0 0 0 0 0 0 0 2.153e-09 
2.56182e-09 0 0 0 0 7.14175e-07 1.94433e-09 0 1.85265e-09 
0 0 0 0 0 0 0 0 0 
1.026e-09 0 0 0 0 0 3.97543e-09 0 5.97285e-10 
0 0 0 0 0 0 0 0 0 
0 0 0 0 0 1.01831e-06 0 0 4.55231e-09 
1.8271e-09 0 0 0 0 0 0 0 8.19005e-07 
0 0 1.62966e-09 0 0 0 0 0 0 
0 0 0 0 0 0 0 0 0 
0 0 0 0 0 0 0 0 0 
0 0 0 0 0 0 0 0 1.1155e-09 
0 2.81699e-09 0 0 7.94337e-07 0 2.37973e-09 0 0 
0 0 0 4.36628e-09 0 6.97319e-10 0 0 0 
2.71419e-09 0 0 0 0 0 0 0 0 
0 0 0 0 0 0 0 7.23824e-07 0 
0 2.27089e-09 0 0 0 0 0 0 0 
0 0 0 0 0 0 0 0 0 
2.63762e-09 4.307e-09 0 6.25823e-10 0 0 0 0 0 
0 8.23267e-07 0 0 0 0 0 0 0 
0 0 0 0 0 0 0 0 0 
0 0 0 0 0 0 0 0 0 
0 0 5.48854e-10 0 0 6.10932e-09 7.41151e-07 3.67384e-09 0 
4.33757e-09 0 0 2.48747e-09 0 0 0 0 1.88145e-09 
0 0 4.53925e-09 7.05535e-07 0 1.18909e-09 0 1.52636e-09 0 
0 0 1.39447e-09 0 1.76436e-09 0 0 0 0 
0 0 2.63295e-09 8.16077e-07 9.11793e-09 0 7.56816e-10 0 0 
0 0 8.2185e-09 0 0 0 0 0 1.41865e-09 
0 0 1.42076e-09 0 0 0 0 4.93181e-09 8.96081e-10 
0 7.09716e-07 2.64817e-09 2.25888e-09 0 1.56264e-09 0 0 0 
0 0 0 3.37006e-09 0 0 0 0 0 
0 0 0 0 0 0 0 0 0 
0 0 0 0 0 0 0 0 0 
0 0 0 6.81481e-10 0 0 3.15873e-09 0 0 
0 0 0 0 0 0 0 0 3.27034e-09 
0 0 1.34882e-09 0 0 0 0 1.54558e-09 0 
7.14192e-07 0 2.34008e-09 0 0 3.07235e-09 0 0 0 
0 0 0 0 0 8.18583e-07 0 1.68077e-09 0 
0 0 1.24322e-09 4.75657e-09 0 0 2.66927e-09 0 0 
0 6.58771e-10 0 0 0 0 2.05293e-09 0 0 
0 0 0 1.76644e-09 0 0 0 0 0 
0 0 0 0 2.92492e-09 0 0 0 0 
0 0 0 0 0 0 0 0 0 
0 0 0 0 0 0 0 0 0 
0 0 0 0 0 0 0 0 0 
0 1.50643e-09 0 0 0 0 0 0 7.16575e-07 
0 0 1.94309e-09 0 8.46061e-10 0 0 4.36966e-09 0 
0 0 0 2.98143e-09 0 0 7.02653e-07 0 2.70515e-09 
0 0 0 1.74265e-09 0 0 0 0 0 
0 0 0 0 1.00577e-06 1.03703e-06 1.85665e-09 0 0 
0 0 4.20243e-09 0 6.95735e-07 0 0 0 0 
0 2.40759e-09 3.19229e-09 0 0 0 0 0 0 
0 0 5.9371e-09 0 0 0 0 7.2622e-10 0 
0 0 0 0 0 0 0 0 0 
0 0 0 0 0 0 0 0 0 
0 0 0 0 0 0 0 0 0 
0 0 0 6.59067e-10 0 0 0 0 0 
0 0 0 0 0 0 0 0 0 
0 0 0 0 0 0 0 0 0 
1.95451e-09 0 0 0 0 0 2.10683e-09 0 0 
0 0 0 0 0 0 0 0 0 
0 0 0 0 0 4.60046e-09 3.34425e-09 0 0 
0 0 0 0 0 0 1.36325e-09 0 0 
4.11547e-09 0 0 5.54251e-09 8.83302e-07 0 0 0 0 
0 0 0 0 0 0 0 0 0 
0 0 0 0 0 0 0 0 0 
0 0 0 0 0 0 0 0 0 
0 9.62924e-10 0 0 0 0 0 0 0 
0 0 0 2.93269e-09 0 0 0 0 0 
0 0 1.34339e-09 0 0 3.74869e-09 3.33567e-09 0 2.91383e-09 
0 1.65206e-09 1.52071e-09 0 0 0 0 0 0 
0 0 0 0 0 0 0 1.0815e-06 1.07811e-08 
0 0 0 0 2.61693e-09 0 0 0 2.61473e-09 
0 6.15647e-10 0 2.36367e-09 0 0 0 0 0 
0 0 4.352e-09 0 1.05751e-06 0 0 0 0 
0 0 0 0 0 0 0 0 0 
0 0 0 0 0 0 0 0 0 
0 0 0 0 0 0 0 0 1.83815e-09 
0 0 1.36664e-09 0 0 0 0 0 6.90894e-07 
3.11258e-09 0 0 2.10279e-09 0 0 2.01304e-09 0 0 
0 0 0 0 0 0 0 7.14034e-07 0 
0 0 0 0 0 0 0 0 0 
9.77869e-10 0 0 0 2.58783e-09 0 0 0 1.01274e-06 
0 0 0 0 7.99882e-07 0 0 0 0 
0 0 0 0 0 0 0 2.12023e-09 3.27672e-09 
0 7.20795e-07 1.54974e-09 0 0 9.86994e-07 0 0 0 
0 0 0 0 0 0 0 0 0 
0 0 0 0 0 0 0 0 0 
0 0 0 0 0 0 0 0 0 
0 0 0 0 0 0 9.52303e-10 0 0 
3.20052e-09 2.18927e-09 0 0 0 0 1.51255e-09 0 0 
0 0 0 0 0 0 0 0 0 
0 1.29005e-09 3.02337e-09 0 0 2.70239e-09 0 0 0 
1.23844e-09 0 0 2.22868e-09 0 9.1371e-10 1.641e-09 0 0 
6.74679e-09 0 0 0 0 0 0 4.10952e-09 0 
1.03406e-09 4.95684e-09 0 2.20421e-09 3.43389e-09 0 7.07132e-07 0 0 
0 0 4.43422e-09 1.88297e-09 3.65052e-09 0 0 0 0 
0 0 0 0 0 0 0 0 0 
0 0 0 0 0 0 0 0 0 
0 0 0 0 0 0 0 0 0 
0 5.43807e-09 7.20166e-07 0 0 0 0 0 0 
0 7.36083e-10 4.11363e-09 8.97013e-10 4.46145e-10 0 0 0 6.91612e-07 
0 0 0 0 0 0 0 0 0 
0 0 7.58128e-09 7.8929e-07 0 4.47298e-09 0 0 0 
0 1.72366e-09 0 1.52715e-09 0 0 0 0 0 
0 0 0 0 9.80885e-07 0 0 4.50185e-09 0 
0 0 1.61836e-09 7.30648e-07 0 0 0 5.22658e-09 2.81363e-09 
0 0 4.33197e-09 0 0 0 0 0 0 
1.95615e-09 8.02918e-10 0 0 0 0 0 0 0 
0 0 0 0 0 0 0 0 0 
0 0 0 0 0 0 0 0 0 
0 0 0 0 5.04496e-10 0 0 0 0 
0 0 0 0 0 0 0 0 0 
0 0 0 0 0 0 0 0 0 
0 0 0 0 0 0 8.20565e-07 0 1.28471e-09 
0 1.64667e-09 0 0 0 0 0 0 0 
0 0 0 0 0 0 0 1.23056e-09 0 
0 0 0 1.026e-09 4.69249e-09 0 6.27904e-09 0 0 
0 0 0 0 0 5.709e-09 4.61176e-09 0 9.45894e-10 
0 0 0 0 0 0 0 0 0 
0 0 0 0 0 0 0 0 0 
0 0 0 0 0 0 0 0 0 
0 0 0 0 0 3.90037e-09 0 9.29542e-10 0 
0 0 3.52624e-09 0 0 0 0 0 1.18796e-09 
0 0 0 0 0 0 0 0 0 
0 0 2.953e-09 1.62588e-09 0 0 0 0 3.1651e-09 
3.29479e-09 0 0 0 7.2321e-07 0 0 0 0 
0 0 1.60515e-09 0 0 0 0 0 0 
0 0 0 0 0 0 0 7.53313e-09 0 
0 0 4.56483e-09 0 0 8.33781e-07 0 0 2.76998e-10 
0 0 0 0 0 0 0 0 0 
0 0 0 0 0 0 0 0 0 
0 0 0 0 0 0 0 2.87114e-10 0 
0 0 0 9.38519e-07 9.57565e-07 0 0 0 0 
0 0 0 6.97604e-09 0 0 0 0 0 
2.45526e-09 0 0 2.03174e-09 0 0 0 0 0 
0 0 0 0 0 0 0 9.45353e-07 0 
0 0 0 0 5.44213e-09 1.98914e-09 0 0 7.17373e-07 
0 1.66647e-09 0 0 7.01611e-07 0 0 0 0 
0 0 0 2.73938e-09 1.62911e-09 0 4.157e-09 0 0 
0 0 7.2827e-07 0 0 0 0 8.19824e-07 0 
0 0 0 0 0 0 0 0 0 
0 0 0 0 0 0 0 0 0 
0 0 0 0 0 0 0 0 0 
0 1.81483e-09 0 0 0 0 0 0 0 
1.8893e-09 2.15102e-09 0 0 0 6.83644e-07 8.19596e-09 3.45987e-09 0 
0 9.45804e-10 0 2.00349e-09 6.90724e-07 3.06493e-09 1.91391e-09 0 0 
0 0 5.20379e-10 0 0 0 0 0 0 
0 0 0 0 5.11185e-09 7.091e-10 0 0 0 
0 0 0 0 0 0 0 1.12999e-09 0 
1.87084e-09 0 6.99832e-07 0 0 0 2.75267e-09 9.21806e-10 0 
7.27961e-07 0 0 2.91357e-09 0 1.50556e-09 0 0 0 
0 0 0 0 0 0 0 0 0 
0 0 0 0 0 0 0 0 0 
0 0 0 0 0 0 0 0 0 
0 0 7.42682e-10 9.48025e-10 2.00872e-09 0 0 0 0 
0 0 1.60031e-09 0 0 0 1.80758e-09 0 0 
0 0 0 0 0 0 0 0 0 
0 0 0 0 0 0 0 1.0687e-06 1.24836e-06 
1.13254e-06 0 0 1.80953e-09 8.29189e-07 0 0 0 4.81034e-09 
0 0 3.47059e-09 0 0 0 0 0 0 
0 3.34589e-10 2.29653e-09 2.64757e-09 0 1.08469e-09 0 0 0 
0 0 0 0 0 0 0 1.7495e-09 0 
3.36625e-09 0 0 0 0 0 0 0 0 
0 0 0 0 0 0 0 0 0 
0 0 0 0 0 0 0 0 0 
0 0 0 0 0 5.69736e-09 0 0 7.92509e-09 
9.37238e-07 0 0 1.57859e-09 0 0 0 0 0 
0 0 0 0 0 0 2.16923e-09 0 0 
0 0 0 0 0 0 0 0 0 
2.32312e-09 0 0 0 0 0 6.58821e-09 7.84605e-07 0 
0 4.30762e-09 0 0 0 0 0 0 0 
0 9.63776e-10 0 0 0 0 0 0 7.03612e-07 
1.51333e-09 0 0 0 2.91367e-09 1.19548e-09 0 0 0 
0 0 0 0 0 0 0 0 0 
0 0 0 0 0 0 0 0 0 
0 0 0 0 0 0 0 0 0 
0 0 0 0 0 0 0 0 4.31352e-09 
0 9.25448e-07 0 0 0 0 0 0 0 
1.10381e-09 0 0 0 0 0 1.15393e-09 0 1.16934e-09 
0 0 0 0 0 0 0 0 0 
0 1.9146e-09 0 0 0 7.91455e-07 0 0 4.45917e-09 
0 0 0 0 0 0 0 0 0 
0 0 0 0 0 0 0 0 0 
0 0 2.16984e-09 0 0 2.1471e-09 0 0 0 
0 6.74249e-10 0 0 0 0 0 0 0 
0 0 0 0 0 0 0 0 0 
0 0 0 0 0 0 0 0 0 
0 0 0 0 7.34066e-10 0 9.60898e-10 0 1.43904e-10 
0 0 1.98834e-08 0 2.79953e-09 0 0 0 0 
0 0 0 0 0 0 0 0 0 
0 0 0 1.36944e-09 0 0 0 2.70507e-09 0 
4.71531e-09 7.57494e-07 2.6077e-09 0 0 0 6.45589e-09 4.30956e-09 6.37062e-09 
0 0 0 0 9.26425e-07 0 0 0 0 
0 0 0 0 0 0 0 5.91597e-10 0 
1.49249e-09 0 1.80308e-09 0 0 2.42412e-09 2.52931e-09 0 9.01021e-10 
1.27068e-09 0 0 0 0 0 0 0 0 
0 0 0 0 0 0 0 0 0 
0 0 0 0 0 0 0 0 0 
0 0 0 0 0 0 0 0 0 
0 0 2.13349e-09 0 0 0 0 0 0 
0 0 0 0 0 0 0 0 0 
0 0 0 0 0 3.47138e-09 6.86157e-07 6.32541e-09 1.45447e-09 
0 4.50765e-09 0 0 1.11705e-09 1.78394e-09 0 2.14009e-09 0 
1.3332e-09 0 0 0 2.89923e-09 9.21759e-07 0 4.1975e-09 2.02813e-09 
0 0 0 0 0 0 0 0 0 
0 2.91242e-10 0 0 0 6.50863e-10 0 0 2.62557e-09 
0 0 0 0 2.4595e-10 0 0 0 0 
0 0 0 0 0 0 0 0 0 
0 0 0 0 0 0 0 0 0 
0 0 0 0 0 0 0 4.34165e-09 0 
0 1.1431e-09 0 0 0 0 0 0 9.33931e-10 
0 0 0 0 0 0 0 0 0 
0 0 0 0 0 0 0 3.48025e-09 0 
0 0 0 0 0 0 0 0 0 
7.04262e-10 0 0 0 0 0 0 0 0 
0 0 0 0 0 1.02793e-09 0 0 0 
0 0 0 0 0 0 1.54049e-09 0 6.92145e-07 
0 1.92242e-09 0 0 0 0 0 0 0 
0 0 0 0 0 0 0 0 0 
0 0 0 0 0 0 0 0 0 
0 0 0 0 0 0 1.09218e-09 0 6.82587e-07 
0 0 0 0 2.52649e-09 3.5786e-09 0 0 1.25242e-09 
0 0 0 0 0 0 0 0 0 
0 0 0 0 0 0 0 0 6.60346e-10 
0 0 0 0 9.20497e-10 0 0 0 0 
0 0 0 0 0 0 0 5.43785e-09 0 
1.92208e-09 0 0 0 4.73151e-09 0 0 1.02672e-09 0 
0 0 0 0 0 0 0 0 3.50488e-09 
0 0 0 0 0 1.77972e-09 0 0 0 
0 1.93874e-10 0 0 0 0 0 0 0 
0 0 0 0 0 0 0 0 0 
0 0 0 0 0 0 0 0 2.29867e-09 
1.81046e-09 0 0 9.62858e-10 0 0 1.08606e-09 0 0 
0 0 0 0 0 0 0 0 0 
0 0 0 0 0 0 0 0 0 
1.00751e-09 0 0 0 0 1.00684e-09 0 0 0 
0 0 0 0 0 0 0 0 0 
0 0 2.96249e-09 0 1.4732e-09 7.26254e-07 0 3.44514e-09 0 
0 0 0 0 0 0 0 0 0 
0 0 0 0 0 0 0 0 0 
0 0 0 0 0 0 0 0 0 
0 0 0 0 0 0 0 0 0 
0 0 0 0 0 0 0 0 0 
0 0 2.03831e-09 0 0 0 0 0 6.99755e-07 
5.13226e-09 0 0 1.39119e-09 0 0 0 0 0 
0 0 0 0 0 0 0 0 0 
0 0 0 0 9.22949e-10 0 3.97513e-10 0 0 
0 0 0 0 0 0 0 0 1.42143e-09 
0 0 0 6.56696e-10 0 1.10187e-09 0 0 3.7564e-09 
0 0 0 0 0 0 0 0 0 
1.25479e-09 0 0 0 0 2.27615e-09 0 0 0 
0 0 0 0 0 0 0 0 0 
0 0 0 0 0 0 0 0 0 
0 0 0 0 0 0 0 0 0 
0 0 0 0 1.14785e-09 0 0 0 0 
0 0 4.55246e-09 0 7.15542e-07 0 0 1.84023e-09 0 
0 0 0 0 0 0 0 1.09606e-09 0 
0 0 0 0 0 0 0 2.73836e-09 0 
0 0 0 0 0 5.04095e-10 0 0 0 
0 0 0 0 6.07673e-09 7.22423e-07 6.95396e-09 0 0 
0 0 0 0 0 0 0 0 0 
0 5.00864e-10 0 0 6.92233e-07 4.82501e-09 0 0 3.44233e-09 
0 2.15176e-09 0 0 0 0 0 0 0 
0 0 0 0 0 0 0 0 0 
0 0 0 0 0 0 0 0 0 
0 0 0 0 0 4.38611e-10 0 0 0 
0 0 0 0 0 0 0 0 0 
0 0 0 1.00721e-09 3.62232e-09 0 0 2.603e-09 0 
2.49778e-09 0 3.27081e-09 0 0 0 3.33529e-09 6.84309e-07 0 
5.09313e-09 0 0 0 0 0 0 6.68061e-10 0 
6.8604e-07 5.27335e-09 0 0 0 0 0 0 0 
1.68952e-08 7.0406e-07 0 2.77887e-09 0 0 0 0 0 
2.20962e-10 0 0 0 0 1.64905e-09 0 0 0 
0 0 0 0 0 0 0 0 0 
0 0 0 0 0 0 0 0 0 
0 0 0 0 0 0 0 0 0 
0 0 0 0 0 0 0 0 0 
0 0 0 0 0 0 5.3509e-09 0 4.23319e-10 
1.70436e-09 0 0 0 6.46396e-10 0 7.12742e-07 0 4.35144e-09 
0 0 0 0 0 0 2.48586e-09 0 0 
0 1.37153e-09 0 0 0 1.25241e-10 4.98702e-10 0 8.76043e-10 
0 0 2.1183e-09 0 9.37928e-10 0 3.81632e-09 0 0 
0 0 2.08816e-09 2.99638e-09 0 0 0 0 0 
0 0 0 0 0 0 0 0 1.34697e-09 
1.07515e-09 2.95278e-09 0 9.16118e-07 5.882e-09 0 6.30722e-10 0 0 
0 0 0 0 0 0 0 0 0 
0 0 0 0 0 0 0 0 0 
0 0 0 0 0 0 0 0 1.3435e-09 
0 0 0 0 0 8.31445e-09 7.40518e-07 3.0545e-09 2.86754e-09 
0 0 0 0 0 0 0 0 0 
0 0 0 8.72929e-07 0 1.64372e-09 0 2.39845e-09 0 
0 0 4.96891e-10 0 0 0 0 0 0 
2.77289e-09 0 0 0 0 0 0 0 4.73503e-10 
1.22764e-09 0 0 0 0 0 0 0 0 
0 0 0 0 0 0 2.20811e-09 0 0 
0 0 0 0 0 0 1.4733e-09 0 0 
0 0 0 0 0 0 0 0 0 
0 0 0 0 0 0 0 0 0 
0 0 0 0 0 0 4.12388e-09 0 5.44641e-09 
0 0 0 3.08801e-09 8.70174e-07 0 0 0 3.63664e-09 
0 0 0 0 0 0 0 0 0 
0 0 7.85932e-07 0 3.00152e-09 8.43111e-07 1.04878e-08 0 0 
1.99144e-09 2.35122e-09 0 0 0 0 0 0 0 
0 0 0 5.69043e-10 0 0 5.80689e-10 0 0 
0 0 0 0 0 0 0 0 0 
0 0 0 0 0 0 0 0 0 
0 0 9.87587e-10 0 0 0 2.4067e-09 2.66669e-09 0 
0 0 0 0 0 0 0 0 0 
0 0 0 0 0 0 0 0 0 
0 0 0 0 0 0 0 6.86505e-07 0 
0 0 0 0 9.48832e-07 4.20003e-09 0 0 0 
0 0 0 0 0 0 0 7.00897e-07 1.92272e-09 
0 0 3.69687e-09 8.66232e-09 0 0 0 0 4.28599e-09 
0 0 0 0 0 0 0 8.45899e-10 0 
0 0 0 0 0 0 0 0 0 
0 0 0 0 0 0 0 0 0 
0 0 0 0 0 0 0 0 0 
0 0 0 0 0 0 0 0 0 
0 0 0 0 0 0 0 0 0 
0 0 0 0 0 0 0 0 0 
0 0 0 0 0 0 0 0 0 
3.92872e-09 0 0 0 8.45994e-07 0 0 3.37408e-09 0 
2.21446e-09 3.47592e-09 2.37234e-09 3.97289e-09 0 0 0 0 0 
0 1.17054e-09 0 0 0 0 0 0 0 
0 0 0 0 0 0 0 0 0 
0 0 7.40602e-07 0 0 0 0 0 0 
0 0 0 0 0 0 0 0 0 
0 0 0 0 0 0 0 0 0 
0 0 0 0 0 0 0 5.72516e-10 0 
0 0 0 0 0 0 0 0 0 
0 0 0 0 0 0 0 0 0 
0 0 0 0 0 2.23991e-10 0 0 0 
0 0 0 0 3.83376e-09 0 1.7021e-09 6.76932e-09 0 
0 0 0 0 6.87789e-07 1.81327e-09 0 0 0 