# vtk DataFile Version 5.1
vtk output
ASCII
DATASET STRUCTURED_POINTS
DIMENSIONS 100 100 1
SPACING 1 1 1
ORIGIN 0 0 0
POINT_DATA 10000
FIELD FieldData 6
feature_1 1 10000 float
0 0 0 0 0 0 0 0 0 
0 0 0 0 0 0 0 0 0 
0 0 0 0 0 0 0 0 0 
0 0 0 0 0 0 0 0 0 
0 0 0 0 0 0 0 0 0 
0 0 0 0 0 0 0 0 0 
0 0 0 0 0 0 0 0 0 
0 0 0 0 0 0 0 0 0 
0 0 0 0 0 0 0 0 0 
0 0 0 0 0 0 0 0 0 
0 0 0 0 0 0 0 0 0 
0 0 0 0 0 0 0 0 0 
0 0 0 0 0 0 0 0 0 
0 0 0 0 0 0 0 0 0 
0 0 0 0 0 0 0 0 0 
0 0 0 0 0 0 0 0 0 
0 0 0 0 0 0 0 0 0 
0 0 0 0 0 0 0 0 0 
0 0 0 0 0 0 0 0 0 
0 0 0 0 0 0 0 0 0 
0 0 0 0 0 0 0 0 0 
0 0 0 0 0 0 0 0 0 
0 0 0 0 0 0 0 0 0 
0 0 0 0 0 0 0 0 0 
0 0 0 0 0 0 0 0 0 
0 0 0 0 0 0 0 0 0 
0 0 0 0 0 0 0 0 0 
0 0 0 0 0 0 0 0 0 
0 0 0 0 0 0 0 0 0 
0 0 0 0 0 0 0 0 0 
0 0 0 0 0 0 0 0 0 
0 0 0 0 0 0 0 0 0 
0 0 0 0 0 0 0 0 0 
0 0 0 0 0 0 0 0 0 
0 0 0 0 0 0 0 0 0 
0 0 0 0 0 0 0 0 0 
0 0 0 0 0 0 0 0 0 
0 0 0 0 0 0 0 0 0 
0 0 0 0 0 0 0 0 0 
0 0 0 0 0 0 0 0 0 
0 0 0 0 0 0 0 0 0 
0 0 0 0 0 0 0 0 0 
0 0 0 0 0 0 0 0 0 
0 0 0 0 0 0 0 0 0 
0 0 0 0 0 0 0 0 0 
0 0 0 0 0 0 0 0 0 
0 0 0 0 0 0 0 0 0 
0 0 0 0 0 0 0 0 0 
0 0 0 0 0 0 0 0 0 
0 0 0 0 0 0 0 0 0 
0 0 0 0 0 0 0 0 0 
0 0 0 0 0 0 0 0 0 
0 0 0 0 0 0 0 0 0 
0 0 0 0 0 0 0 0 0 
0 0 0 0 0 0 0 0 0 
0 0 0 0 0 0 0 0 0 
0 0 0 0 0 0 0 0 0 
0 0 0 0 0 0 0 0 0 
0 0 0 0 0 0 0 0 0 
0 0 0 0 0 0 0 0 0 
0 0 0 0 0 0 0 0 0 
0 0 0 0 0 0 0 0 0 
0 0 0 0 0 0 0 0 0 
0 0 0 0 0 0 0 0 0 
0 0 0 0 0 0 0 0 0 
0 0 0 0 0 0 0 0 0 
0 0 0 0 0 0 0 0 0 
0 0 0 0 0 0 0 0 0 
0 0 0 0 0 0 0 0 0 
0 0 0 0 0 0 0 0 0 
0 0 0 0 0 0 0 0 0 
0 0 0 0 0 0 0 0 0 
0 0 0 0 0 0 0 0 0 
0 0 0 0 0 0 0 0 0 
0 0 0 0 0 0 0 0 0 
0 0 0 0 0 0 0 0 0 
0 0 0 0 0 0 0 0 0 
0 0 0 0 0 0 0 0 0 
0 0 0 0 0 0 0 0 0 
0 0 0 0 0 0 0 0 0 
0 0 0 0 0 0 0 0 0 
0 0 0 0 0 0 0 0 0 
0 0 0 0 0 0 0 0 0 
0 0 0 0 0 0 0 0 0 
0 0 0 0 0 0 0 0 0 
0 0 0 0 0 0 0 0 0 
0 0 0 0 0 0 0 0 0 
0 0 0 0 0 0 0 0 0 
0 0 0 0 0 0 0 0 0 
0 0 0 0 0 0 0 0 0 
0 0 0 0 0 0 0 0 0 
0 0 0 0 0 0 0 0 0 
0 0 0 0 0 0 0 0 0 
0 0 0 0 0 0 0 0 0 
0 0 0 0 0 0 0 0 0 
0 0 0 0 0 0 0 0 0 
0 0 0 0 0 0 0 0 0 
0 0 0 0 0 0 0 0 0 
0 0 0 0 0 0 0 0 0 
0 0 0 0 0 0 0 0 0 
0 0 0 0 0 0 0 0 0 
0 0 0 0 0 0 0 0 0 
0 0 0 0 0 0 0 0 0 
0 0 0 0 0 0 0 0 0 
0 0 0 0 0 0 0 0 0 
0 0 0 0 0 0 0 0 0 
0 0 0 0 0 0 0 0 0 
0 0 0 0 0 0 0 0 0 
0 0 0 0 0 0 0 0 0 
0 0 0 0 0 0 0 0 0 
0 0 0 0 0 0 0 0 0 
0 0 0 0 0 0 0 0 0 
0 0 0 0 0 0 0 0 0 
0 0 0 0 0 0 0 0 0 
0 0 0 0 0 0 0 0 0 
0 0 0 0 0 0 0 0 0 
0 0 0 0 0 0 0 0 0 
0 0 0 0 0 0 0 2.67458e-09 0 
0 0 0 0 0 0 0 0 0 
0 0 0 0 0 0 0 0 0 
0 0 0 0 0 0 0 0 0 
0 0 0 0 0 0 0 0 0 
0 0 0 0 0 0 0 0 0 
0 0 0 0 0 0 0 0 0 
0 0 0 0 0 0 0 0 0 
0 0 0 0 0 0 0 0 0 
0 0 0 0 0 0 0 0 0 
0 0 0 0 0 0 0 0 0 
0 0 0 0 0 0 0 0 0 
0 0 0 0 0 0 0 0 0 
0 0 0 0 0 0 0 0 0 
0 0 0 0 0 0 0 0 0 
0 0 0 0 0 0 0 0 0 
0 0 0 0 0 0 0 0 0 
0 0 0 0 0 0 0 0 0 
0 0 0 0 0 0 0 0 0 
0 0 0 0 0 0 0 0 0 
0 0 0 0 0 0 0 0 0 
0 0 0 8.48096e-07 7.454e-09 2.32739e-09 0 0 0 
0 0 0 0 0 0 0 0 6.82894e-07 
0 0 0 0 0 0 0 0 0 
0 0 0 0 0 0 0 0 0 
0 0 0 0 0 0 0 0 0 
0 0 0 0 0 0 0 0 0 
0 0 0 0 0 0 0 0 0 
0 0 0 0 0 0 0 0 0 
0 0 0 0 0 0 0 0 0 
0 0 0 0 0 0 0 0 0 
0 0 0 1.58624e-09 0 0 0 0 0 
0 0 0 8.94385e-07 0 7.13604e-09 0 0 0 
0 0 0 0 0 0 0 0 0 
0 0 2.02975e-09 0 0 0 0 0 0 
0 0 0 0 0 0 0 0 0 
0 1.61101e-09 0 0 0 0 0 0 0 
0 0 0 0 0 0 0 0 0 
0 0 0 0 0 0 0 0 0 
0 0 0 0 0 0 0 0 0 
0 0 0 0 0 0 0 0 0 
0 0 0 0 4.87892e-09 6.85194e-07 0 0 0 
0 0 0 0 0 8.85631e-09 0 0 0 
0 0 0 0 0 0 0 0 0 
0 0 0 0 0 0 0 0 0 
0 0 0 0 0 0 0 0 0 
0 0 0 0 0 0 0 0 0 
6.84523e-07 0 0 0 0 0 0 0 0 
0 0 0 0 0 0 0 0 0 
0 0 0 0 0 0 0 0 0 
0 0 0 0 0 0 0 0 0 
0 0 0 0 0 0 0 0 0 
0 0 0 0 0 0 0 0 0 
0 0 0 0 0 0 6.84876e-07 5.26876e-09 3.00617e-09 
0 0 0 0 0 0 8.55607e-07 0 0 
0 0 0 0 0 0 0 0 0 
0 0 1.48393e-09 0 0 0 0 0 0 
0 0 0 0 0 0 0 0 0 
0 0 0 0 0 0 0 0 0 
0 0 0 0 0 0 0 0 0 
0 0 0 0 0 0 0 0 0 
0 0 0 0 0 0 0 0 0 
0 0 0 0 0 0 0 0 0 
0 0 0 0 0 0 0 0 0 
0 0 0 0 0 0 2.51753e-09 0 0 
0 0 0 0 0 7.92478e-07 1.35168e-08 0 0 
0 0 7.33576e-07 0 0 0 0 0 0 
0 0 0 0 0 0 0 0 0 
0 2.41442e-09 0 0 0 0 0 0 0 
0 0 0 0 0 0 0 0 0 
0 0 0 0 0 0 0 0 0 
0 0 0 0 0 0 0 0 0 
0 0 0 0 0 0 0 0 0 
0 0 0 0 0 0 0 0 0 
0 0 0 0 0 0 1.29775e-09 5.78455e-09 0 
0 0 0 0 0 0 0 0 0 
0 0 0 0 0 2.09689e-09 0 0 0 
0 0 0 0 0 0 1.28441e-09 0 0 
0 0 0 0 0 0 0 7.6606e-07 0 
7.65882e-07 8.26281e-09 0 0 0 0 0 0 7.07802e-07 
0 0 0 0 0 0 0 0 0 
0 0 0 0 0 0 0 0 0 
0 0 0 0 0 0 0 0 0 
0 0 0 0 0 0 0 0 0 
0 0 0 0 0 0 0 0 0 
0 0 0 0 0 0 0 0 0 
0 0 0 0 0 0 0 0 0 
0 1.56072e-09 0 0 5.91464e-09 0 0 0 0 
0 0 0 0 0 0 0 0 0 
0 0 0 0 0 0 0 0 0 
0 0 2.82078e-09 0 0 0 0 0 0 
0 0 0 0 0 0 0 0 0 
0 0 0 0 0 0 0 0 0 
0 0 0 0 0 0 0 0 0 
0 0 0 0 0 0 0 0 0 
0 0 0 0 0 0 0 0 0 
0 0 0 0 0 0 0 2.27477e-09 0 
3.31119e-09 6.88181e-07 0 0 0 0 0 0 0 
0 0 0 0 6.8936e-07 0 0 0 0 
0 9.62944e-07 9.81925e-07 0 0 7.67752e-07 0 0 0 
0 0 0 0 0 0 0 1.91915e-09 0 
0 0 0 0 0 0 0 0 0 
0 0 0 0 0 0 0 0 0 
0 0 0 0 0 0 0 0 0 
0 0 0 0 0 0 0 0 0 
0 0 0 0 0 0 0 0 0 
0 0 0 0 0 0 0 0 0 
0 0 0 0 2.17502e-09 4.93229e-09 6.85097e-07 5.02067e-09 0 
0 0 3.82598e-09 0 0 0 0 0 0 
0 0 0 0 0 0 0 0 0 
0 0 0 0 0 0 0 0 0 
0 0 0 0 0 0 0 0 0 
0 0 0 0 0 0 0 0 0 
0 7.09405e-07 0 0 0 0 0 0 0 
0 0 0 0 0 0 0 0 0 
0 0 0 0 0 0 0 0 0 
0 0 0 0 0 0 0 0 0 
0 0 0 0 0 0 0 0 0 
0 0 0 0 0 9.55658e-10 0 0 5.72449e-09 
2.41584e-09 0 0 0 0 0 0 0 0 
0 0 0 0 0 0 0 0 0 
2.18023e-09 0 0 0 0 0 0 3.97694e-09 0 
0 0 0 0 0 0 0 0 0 
0 0 7.70637e-10 0 0 0 0 0 0 
0 0 0 0 0 0 0 0 0 
0 0 0 0 0 0 0 5.04784e-09 0 
0 0 0 0 0 0 0 0 0 
0 0 0 0 0 0 0 0 0 
0 0 0 0 0 0 0 0 0 
0 0 0 0 1.66077e-09 0 0 0 0 
0 0 0 0 1.06367e-09 0 0 0 0 
0 0 0 0 0 0 0 0 0 
0 0 0 0 0 0 0 0 0 
0 0 0 0 3.37247e-10 0 0 0 0 
0 0 0 0 0 0 0 0 0 
0 0 0 0 0 0 0 0 0 
0 0 0 0 0 0 0 0 0 
7.65764e-07 0 0 0 0 0 0 0 0 
0 0 0 0 0 0 0 0 0 
0 0 0 0 0 0 0 0 0 
0 0 0 0 0 0 0 0 0 
0 0 0 0 0 0 0 1.8481e-09 0 
0 0 0 0 0 0 0 0 0 
0 0 0 0 0 0 0 9.38304e-07 9.35305e-07 
0 0 0 0 0 0 0 0 0 
0 0 0 0 0 0 0 0 6.85324e-07 
0 0 0 0 0 0 0 0 0 
0 6.94633e-07 8.43557e-09 0 0 0 0 0 2.99739e-09 
6.29356e-09 0 0 0 0 0 0 0 0 
0 0 0 0 0 0 0 0 0 
0 0 0 0 0 0 0 0 0 
0 0 0 0 0 0 0 0 0 
0 0 0 0 0 0 0 0 0 
0 0 0 0 0 8.37762e-10 0 0 0 
0 0 0 0 0 0 0 0 3.6557e-09 
0 0 2.52056e-09 0 0 0 6.83749e-07 0 0 
0 0 0 0 0 0 0 0 0 
0 0 0 0 0 0 5.09783e-09 0 0 
0 0 0 0 0 0 0 0 0 
0 0 7.73586e-07 0 0 0 0 0 0 
0 0 0 0 0 0 0 0 0 
0 0 0 0 0 0 0 0 0 
0 0 0 1.30229e-09 0 0 0 0 0 
0 0 0 0 0 0 0 0 0 
0 0 0 0 0 0 0 0 0 
0 0 0 0 0 0 0 2.48861e-09 0 
0 0 0 0 0 0 0 0 0 
1.01722e-09 0 0 0 0 0 0 0 0 
0 0 0 0 0 0 1.04897e-08 6.93489e-07 5.58925e-09 
0 0 0 0 0 0 0 0 0 
0 0 4.55034e-09 0 0 0 0 0 0 
0 0 0 0 0 0 0 0 0 
0 0 0 0 0 0 0 0 0 
0 0 0 0 0 0 0 0 0 
7.65985e-07 0 0 0 0 0 0 0 0 
0 0 4.79363e-09 6.85598e-07 0 0 0 0 7.44147e-07 
0 0 0 0 0 0 0 0 0 
0 0 0 0 0 0 0 0 0 
0 0 0 0 0 0 0 0 0 
0 0 1.52654e-09 0 2.35234e-09 0 0 0 3.69499e-09 
0 0 3.1567e-09 0 0 0 0 1.29361e-09 0 
0 0 0 3.33393e-09 0 0 3.18276e-09 0 0 
0 0 0 0 0 0 0 0 0 
0 0 0 0 0 0 0 0 0 
0 0 0 6.99587e-07 0 0 0 0 8.30251e-07 
0 0 0 0 0 0 0 0 0 
0 0 0 0 0 0 0 0 0 
0 0 7.51818e-07 0 0 0 0 0 0 
0 0 3.42846e-09 0 0 0 0 0 0 
0 0 0 0 0 0 0 0 0 
0 0 0 0 0 0 0 0 0 
0 1.15496e-09 0 0 0 6.95537e-07 0 0 1.40893e-09 
0 0 0 0 0 0 0 0 0 
0 0 0 0 0 0 0 0 0 
0 0 0 0 0 0 0 0 0 
0 0 0 4.07095e-09 0 0 0 0 0 
0 0 0 0 0 0 0 0 0 
0 0 0 0 0 0 0 0 0 
0 0 0 0 0 0 0 6.4963e-09 3.94018e-09 
0 6.65916e-09 7.49993e-07 0 0 0 0 0 0 
0 0 0 0 4.32139e-09 0 4.65966e-09 0 0 
0 0 0 0 0 0 0 0 0 
0 0 2.60843e-09 0 0 0 0 0 0 
0 0 0 0 0 7.14844e-07 0 0 0 
0 0 0 0 0 0 0 0 0 
0 0 0 0 0 0 0 0 0 
0 0 0 0 0 0 0 0 7.57808e-07 
8.73943e-09 0 7.9374e-07 4.85876e-09 2.73614e-09 0 0 0 0 
0 0 0 0 0 0 0 9.95125e-10 0 
0 0 1.58526e-09 0 0 0 0 0 0 
0 0 0 8.48927e-09 0 0 0 0 0 
0 0 0 0 1.24871e-09 0 6.99078e-07 5.43229e-09 0 
0 0 0 0 0 0 6.89387e-07 0 0 
0 0 7.77588e-09 0 2.75643e-09 0 0 0 0 
0 0 0 0 0 0 0 0 0 
0 0 0 0 0 0 0 0 0 
0 0 0 0 0 0 0 0 0 
0 0 0 0 0 0 0 2.96558e-09 0 
0 0 0 0 0 0 0 0 3.30969e-09 
0 0 0 2.12424e-09 0 0 0 0 0 
0 0 0 0 0 0 0 0 0 
7.47597e-07 0 0 7.71904e-07 5.21468e-09 0 0 0 0 
0 0 0 0 0 0 0 2.08946e-09 0 
0 0 0 1.96848e-09 0 0 0 0 0 
0 0 4.62694e-09 6.89562e-07 0 0 1.32783e-09 0 1.11725e-09 
0 0 0 0 0 0 0 0 0 
0 0 0 0 0 0 0 0 0 
0 0 0 0 0 0 0 0 0 
0 0 0 0 0 0 0 0 0 
0 0 0 0 0 0 0 3.60783e-09 0 
0 9.32722e-07 0 0 0 0 0 0 0 
0 0 0 0 0 7.53227e-10 0 7.6957e-07 0 
6.48261e-09 0 0 0 0 0 0 0 0 
0 0 0 0 0 3.22404e-09 2.08666e-09 4.60982e-09 0 
2.56159e-09 0 0 0 0 0 0 0 0 
0 0 0 0 0 0 0 0 0 
0 0 0 0 0 0 0 7.18404e-07 0 
0 0 0 0 0 0 0 0 0 
0 0 0 0 0 0 0 0 0 
0 0 0 0 0 0 0 0 0 
0 0 0 0 0 0 0 0 0 
0 0 9.47988e-07 0 0 0 0 0 0 
0 0 0 0 0 3.29516e-09 0 6.86809e-09 0 
0 0 3.20901e-09 0 0 0 0 0 0 
0 0 0 0 0 0 0 5.43576e-07 0 
0 3.77308e-09 0 0 0 0 3.04087e-09 0 0 
0 0 0 0 0 0 0 0 0 
0 0 0 0 0 0 0 0 0 
0 0 0 0 0 0 0 0 0 
0 0 0 0 0 0 0 0 0 
0 0 0 0 0 0 0 0 0 
0 0 0 0 0 0 0 0 0 
0 0 0 0 0 6.74364e-09 7.28012e-07 0 0 
0 0 0 0 0 0 0 0 0 
0 0 0 0 0 0 0 0 0 
0 0 0 0 0 0 0 0 4.92772e-09 
2.27077e-09 0 0 0 7.99339e-07 0 8.62696e-07 0 0 
0 0 0 0 0 0 0 0 0 
0 0 0 0 0 4.0558e-09 6.95823e-07 0 0 
0 0 0 0 0 0 0 0 0 
0 0 0 0 0 0 0 0 0 
0 0 0 0 0 0 0 0 0 
0 0 0 0 0 0 0 0 0 
0 0 0 0 0 5.38523e-09 0 5.29488e-09 0 
0 0 0 0 0 0 0 0 0 
9.63689e-07 9.79928e-07 0 4.34782e-09 7.6992e-10 0 0 0 5.12593e-09 
0 0 0 0 0 0 0 0 0 
0 0 0 0 0 0 0 4.37449e-09 0 
0 0 0 0 0 0 0 0 0 
0 0 0 0 0 0 2.70862e-09 0 0 
0 0 0 6.90504e-10 0 0 0 0 0 
0 0 0 0 0 0 0 0 0 
0 0 0 0 0 0 0 0 0 
0 0 0 0 0 0 0 0 0 
0 0 0 2.58567e-09 0 0 0 0 0 
0 0 0 0 0 0 0 0 3.33787e-09 
0 0 0 0 0 1.49706e-09 0 0 4.06489e-09 
0 0 0 0 4.20142e-09 0 0 0 0 
0 0 0 0 0 0 0 0 0 
9.43774e-07 0 0 7.85209e-07 0 0 0 0 0 
0 0 0 0 0 0 0 0 0 
0 0 0 0 0 0 0 0 0 
0 0 0 0 0 0 0 0 0 
0 0 0 0 0 0 0 0 0 
0 0 0 0 0 0 0 0 0 
0 0 0 4.22112e-09 7.6157e-07 0 9.8868e-09 0 0 
4.71402e-09 0 0 2.70607e-09 0 0 0 0 0 
0 0 0 0 0 0 0 0 0 
0 8.14581e-07 0 0 0 6.99028e-07 0 0 0 
0 0 0 0 0 0 0 0 0 
8.9263e-07 0 0 0 3.21259e-09 0 0 0 0 
0 0 0 0 0 0 0 0 0 
0 0 0 3.10919e-10 0 0 0 0 0 
0 0 0 0 0 0 0 0 0 
0 0 0 0 0 0 0 0 0 
0 0 0 0 0 0 0 0 0 
0 0 0 0 0 0 0 8.33333e-07 5.05662e-09 
0 0 0 6.93417e-07 0 0 0 0 0 
0 0 0 0 7.58951e-07 0 0 0 0 
0 0 1.1755e-08 0 0 0 4.76977e-09 0 0 
0 0 0 0 0 0 0 0 0 
0 0 0 0 7.99634e-07 7.42975e-09 0 0 0 
0 0 0 0 0 0 0 0 0 
0 0 0 0 0 0 0 0 0 
0 0 0 0 0 0 0 0 0 
0 0 0 0 0 0 0 0 0 
0 0 0 0 0 0 0 0 0 
0 0 0 0 0 0 0 0 6.12239e-09 
3.63255e-09 0 0 3.99464e-09 4.93193e-09 0 0 0 0 
0 0 0 0 0 7.37797e-09 0 0 8.90472e-09 
0 9.47283e-07 0 8.8063e-07 2.9085e-09 0 0 0 4.34325e-09 
0 0 0 0 0 0 0 0 0 
0 0 0 0 0 0 0 0 0 
0 0 0 0 0 0 0 0 0 
0 0 0 0 0 0 0 0 0 
0 0 0 0 0 0 0 0 0 
0 0 0 0 0 0 0 0 0 
0 0 0 0 0 0 0 0 0 
0 0 0 0 0 0 2.26198e-09 0 1.15457e-08 
7.81306e-07 0 0 0 0 0 0 0 0 
0 0 0 0 0 0 0 1.01952e-08 0 
0 9.2365e-07 0 0 0 0 0 0 0 
0 0 0 0 0 7.08285e-07 0 3.70589e-09 0 
0 0 0 0 4.71187e-09 0 0 0 0 
0 0 0 0 0 0 0 0 0 
0 0 0 0 0 0 0 0 0 
0 0 0 0 0 0 0 0 0 
0 0 0 0 0 0 0 0 0 
0 0 0 0 0 0 0 6.82049e-07 0 
0 0 0 0 0 0 0 0 0 
0 0 1.8277e-09 0 2.03145e-09 0 0 1.52974e-09 0 
0 0 0 0 0 0 0 0 0 
8.07448e-07 0 0 0 0 0 0 0 0 
0 0 0 0 0 0 5.51832e-09 0 3.96874e-09 
0 0 0 0 0 0 0 0 0 
0 0 0 0 0 0 0 0 0 
0 0 0 0 0 0 0 0 0 
0 0 0 0 0 0 0 0 0 
0 0 0 0 0 0 0 0 0 
0 0 0 0 0 0 0 2.43545e-09 0 
0 0 0 0 0 4.97858e-10 0 0 0 
0 3.78733e-09 0 0 0 0 0 0 0 
0 0 0 0 0 9.85036e-10 0 0 0 
0 0 0 0 0 0 0 0 0 
0 0 0 0 0 0 0 0 0 
5.03609e-09 0 0 9.07816e-07 0 9.03156e-07 1.0148e-08 0 0 
0 0 0 0 0 0 0 0 0 
0 0 0 0 4.00334e-09 0 0 0 0 
2.32551e-09 0 0 0 0 0 0 0 0 
0 0 0 0 0 0 0 0 0 
0 0 0 0 0 0 0 0 0 
0 0 0 0 1.73742e-09 3.29627e-09 0 0 0 
0 0 0 0 0 0 0 0 0 
0 0 0 0 0 0 0 0 0 
2.17917e-09 0 5.16918e-09 0 0 4.57594e-09 0 0 0 
0 0 0 0 0 0 0 0 0 
7.17858e-07 0 0 0 0 9.46136e-07 0 4.25053e-09 0 
0 0 0 0 0 0 0 0 0 
0 0 0 0 4.57629e-09 0 0 0 7.63992e-07 
0 0 0 0 0 0 0 0 0 
0 0 0 0 0 0 0 0 0 
0 0 0 0 0 0 0 0 0 
0 0 0 0 0 0 0 6.82342e-07 0 
0 0 0 0 0 0 0 0 0 
0 0 0 0 6.87372e-07 0 0 0 0 
0 0 0 0 9.72645e-07 9.56863e-07 0 0 0 
0 0 0 0 0 0 0 0 0 
3.09218e-09 1.0257e-08 0 0 0 0 0 0 0 
0 0 0 0 0 0 0 0 0 
1.53638e-09 0 0 0 0 1.34656e-08 7.44932e-07 0 0 
0 0 0 0 0 0 0 0 0 
0 0 0 0 0 0 0 0 0 
0 0 0 0 0 0 0 0 0 
0 0 0 0 0 0 0 1.02745e-09 0 
0 0 0 0 0 0 0 0 0 
0 0 0 0 2.92214e-09 0 0 0 0 
0 0 0 0 0 1.24005e-08 0 0 0 
0 0 0 0 0 0 0 0 0 
0 0 0 0 0 0 0 0 0 
0 0 0 0 0 0 0 0 0 
0 0 1.82925e-09 0 0 0 0 2.1042e-09 0 
0 0 7.57575e-07 0 0 0 0 0 0 
0 0 0 0 0 0 0 0 0 
0 0 0 0 0 0 0 0 0 
0 0 0 0 0 0 0 0 0 
0 0 0 0 0 0 0 0 0 
0 0 0 0 0 2.88523e-09 0 0 0 
0 0 0 0 0 0 0 0 3.54213e-09 
0 0 0 0 0 0 0 0 0 
0 0 0 0 0 0 0 0 0 
3.07094e-09 0 0 0 0 0 0 0 0 
0 0 0 0 0 0 7.31189e-07 0 0 
0 0 4.35634e-09 0 0 0 0 0 0 
0 0 0 0 0 0 0 0 0 
0 0 0 0 0 0 0 0 0 
0 0 0 0 0 0 0 0 0 
0 0 0 5.80139e-10 0 0 0 0 0 
0 0 0 0 0 0 0 2.02232e-09 0 
0 0 0 0 2.03772e-09 9.5219e-09 7.19823e-07 0 0 
0 0 0 0 0 0 0 0 0 
0 0 0 0 0 0 0 0 0 
0 0 0 0 0 0 0 3.41705e-09 0 
1.37606e-09 0 0 6.93861e-07 0 1.82976e-09 0 0 0 
0 0 0 0 0 2.62515e-09 0 0 0 
0 0 0 0 0 0 0 0 0 
0 0 0 0 0 0 0 0 0 
0 0 0 0 0 2.02986e-09 0 0 0 
0 0 0 0 0 0 0 0 0 
0 0 0 0 0 0 6.87301e-07 0 0 
0 0 0 0 0 0 0 0 3.50108e-09 
0 0 0 0 0 0 0 0 0 
0 0 0 0 0 0 0 0 0 
0 0 0 0 0 0 5.26397e-09 6.88288e-07 0 
0 0 0 0 9.64689e-09 4.13868e-09 0 0 0 
0 0 0 0 0 0 0 1.32979e-09 0 
0 0 0 0 0 0 0 0 0 
0 0 0 0 0 0 0 0 0 
0 0 0 0 0 0 6.8288e-07 4.60997e-09 3.98165e-09 
0 0 0 0 0 0 0 0 0 
0 0 0 0 0 0 0 0 0 
0 0 0 0 0 0 0 0 0 
0 0 0 0 0 0 0 7.19721e-07 0 
0 0 0 0 0 0 0 0 0 
0 0 0 0 5.04795e-09 0 0 0 0 
0 0 0 0 0 0 0 0 0 
0 0 0 4.3411e-09 0 0 0 7.00885e-07 0 
0 0 0 0 0 0 0 0 0 
0 0 0 0 0 0 0 0 0 
0 0 0 0 0 0 0 0 0 
0 0 0 0 0 0 0 0 0 
0 0 0 0 0 0 0 0 0 
0 1.42311e-09 0 0 0 0 0 0 0 
0 0 0 0 0 0 2.49571e-09 0 0 
0 0 0 0 0 0 0 0 0 
0 0 0 0 0 6.87365e-07 0 4.87056e-09 0 
0 0 0 0 0 0 0 0 0 
4.10051e-09 0 6.96893e-07 0 0 0 0 0 0 
0 0 0 0 0 0 0 0 0 
0 0 0 0 0 0 0 0 0 
0 0 0 0 0 0 0 0 0 
1.76382e-09 0 0 0 0 0 0 0 0 
0 0 0 0 0 0 0 0 0 
0 0 0 0 0 0 0 0 0 
0 0 0 0 0 0 0 0 4.7743e-09 
0 0 0 1.06019e-06 9.79642e-07 0 0 0 0 
0 0 0 0 0 0 0 0 0 
0 1.35083e-09 0 0 0 0 0 0 0 
0 0 0 0 0 0 0 0 0 
0 0 0 0 0 0 0 0 0 
0 0 0 0 0 0 0 0 0 
0 0 0 0 0 0 0 0 2.62747e-09 
0 0 0 0 0 0 0 0 0 
0 0 0 0 0 0 0 0 0 
0 0 0 0 0 0 0 0 0 
0 0 0 0 0 0 0 0 0 
0 0 0 8.91165e-07 0 0 8.15824e-09 0 0 
0 0 0 0 0 0 0 0 0 
0 0 0 0 0 0 0 0 0 
0 0 0 0 0 0 0 0 0 
0 0 0 0 0 0 0 0 0 
0 0 0 0 0 0 0 0 0 
0 0 0 0 0 0 0 0 0 
0 0 0 0 0 0 0 0 0 
0 0 0 0 0 0 2.23016e-09 0 0 
0 0 0 0 0 0 0 6.85561e-07 0 
0 0 0 0 0 0 0 0 0 
7.11918e-07 0 4.19749e-09 0 0 0 0 0 0 
0 0 0 0 0 0 0 0 0 
5.22191e-10 0 0 0 0 0 0 0 5.60598e-09 
7.07129e-07 0 0 0 0 0 0 0 0 
0 6.96719e-07 0 0 0 0 0 0 0 
0 0 0 0 0 0 0 0 0 
0 0 0 0 0 0 0 0 0 
0 0 0 6.73201e-09 0 0 0 0 0 
0 0 0 0 0 6.8197e-09 7.20903e-07 0 0 
0 0 0 0 0 0 0 3.68329e-09 0 
0 0 0 0 0 0 0 0 0 
0 6.40616e-09 0 0 0 0 0 0 0 
0 0 0 0 0 0 0 0 0 
0 0 0 0 0 0 0 0 0 
0 0 0 0 0 0 0 0 0 
0 1.21607e-08 0 0 0 0 0 0 0 
0 0 0 0 0 0 0 0 0 
0 0 0 0 0 0 0 0 0 
0 0 0 6.82767e-07 0 0 0 0 0 
0 0 0 0 7.21802e-07 0 0 0 5.61173e-09 
0 0 0 0 0 0 0 0 0 
2.51744e-09 0 0 0 0 0 1.41553e-09 0 6.96272e-07 
4.97344e-09 0 0 0 0 0 0 2.03461e-09 0 
0 0 0 0 0 0 0 0 0 
0 0 0 0 0 0 0 0 0 
0 0 0 0 0 2.6586e-09 0 0 5.58259e-09 
0 0 2.81941e-09 0 0 0 0 0 0 
0 0 0 0 0 0 0 0 0 
0 0 0 0 0 0 0 0 0 
0 0 0 0 0 0 0 0 0 
0 0 0 8.23237e-10 0 0 1.34103e-09 0 0 
0 0 0 1.80599e-09 0 0 4.08263e-09 0 0 
2.57124e-09 0 0 0 0 0 0 0 0 
0 2.59673e-09 0 0 0 0 0 0 1.19937e-09 
0 0 0 7.09568e-07 5.37978e-09 0 0 0 0 
0 0 0 0 0 0 0 0 0 
0 0 0 0 0 0 0 0 0 
6.91628e-07 0 0 0 0 0 0 0 0 
0 0 0 0 0 0 0 0 0 
0 0 0 0 0 0 0 0 0 
0 0 0 0 0 0 0 0 0 
0 0 0 3.45043e-09 0 0 0 0 0 
0 0 7.87371e-07 0 0 3.83123e-09 0 7.03706e-07 0 
0 0 0 0 0 0 0 0 0 
0 0 0 0 0 0 0 0 0 
0 0 0 0 0 0 0 0 0 
0 0 0 0 0 0 0 0 0 
0 0 0 1.05637e-06 1.166e-06 0 0 0 0 
0 0 0 0 0 0 0 0 0 
0 0 0 0 0 0 0 0 0 
0 0 0 0 0 0 0 0 0 
0 0 0 0 0 0 0 0 0 
0 0 0 0 0 7.53792e-07 2.3779e-09 0 0 
0 0 4.82042e-09 0 0 0 0 0 0 
2.58765e-09 0 0 0 0 7.13748e-07 0 0 0 
0 0 0 0 0 0 0 0 0 
0 0 0 0 0 0 0 0 0 
0 0 0 0 0 0 0 0 0 
0 0 0 0 0 1.01859e-06 0 0 0 
0 0 0 0 0 0 0 0 8.18436e-07 
0 0 1.6541e-09 0 0 0 0 0 0 
0 0 0 0 0 0 0 0 0 
0 0 0 0 0 0 0 0 0 
0 0 0 0 0 0 0 0 0 
0 0 0 0 7.93782e-07 0 2.36379e-09 0 3.33124e-09 
0 0 0 0 0 0 0 0 0 
0 0 0 0 0 0 0 0 0 
0 0 0 0 0 0 0 7.23361e-07 0 
0 2.31119e-09 0 0 0 0 0 0 0 
0 0 0 0 0 0 0 0 0 
2.6669e-09 4.29187e-09 0 0 0 0 0 0 0 
0 8.22692e-07 0 0 0 0 0 0 0 
0 0 0 0 0 0 0 0 0 
0 0 0 0 0 0 0 0 0 
0 0 0 0 0 0 7.40684e-07 3.66834e-09 0 
4.27551e-09 0 0 0 0 0 0 0 0 
0 0 0 7.05125e-07 0 0 0 0 0 
0 0 0 0 1.73359e-09 0 0 0 0 
0 0 0 8.15525e-07 9.14319e-09 0 0 0 0 
0 0 8.2148e-09 0 0 0 0 0 0 
0 0 0 0 0 0 0 4.9224e-09 0 
0 7.09283e-07 2.65162e-09 0 0 1.55706e-09 0 0 0 
0 0 0 3.39324e-09 0 0 0 0 0 
0 0 0 0 0 0 0 0 0 
0 0 0 0 0 0 0 0 0 
0 0 0 0 0 0 0 0 0 
0 0 0 0 0 0 0 0 0 
0 0 1.3357e-09 0 0 1.09801e-08 0 0 0 
7.13763e-07 0 0 0 0 0 0 0 0 
0 0 0 0 0 8.18026e-07 0 0 0 
0 0 0 4.74396e-09 0 0 0 1.21482e-09 0 
0 0 0 0 0 0 2.07586e-09 0 0 
0 0 0 1.77557e-09 0 0 0 0 0 
0 0 0 0 0 0 0 0 0 
0 0 0 0 0 0 0 0 0 
0 0 0 0 0 0 0 0 0 
0 0 0 0 0 0 0 0 0 
0 0 0 0 0 0 0 0 7.16139e-07 
0 0 0 2.50055e-09 0 0 0 4.38061e-09 0 
0 0 0 2.95075e-09 0 0 7.02247e-07 0 0 
0 0 0 0 0 0 0 0 0 
0 0 0 0 1.00497e-06 1.03619e-06 0 0 0 
0 0 4.12672e-09 0 6.95335e-07 0 0 0 0 
0 0 3.20021e-09 0 0 0 0 0 0 
0 0 5.92319e-09 0 0 0 0 0 0 
0 0 0 0 0 0 0 0 0 
0 0 0 0 0 0 0 0 0 
0 0 0 0 0 0 0 0 0 
0 0 0 0 0 0 0 0 0 
0 0 0 0 0 0 0 0 0 
0 7.95419e-10 0 0 0 0 0 0 0 
0 1.45242e-09 0 0 0 0 2.10252e-09 0 0 
0 0 0 0 0 0 0 0 0 
0 0 0 0 0 4.65943e-09 3.36215e-09 0 0 
1.73649e-09 0 0 0 0 0 0 0 0 
4.15261e-09 0 0 0 8.82619e-07 0 0 0 0 
0 0 0 0 0 0 0 0 0 
0 0 0 0 0 0 0 0 0 
0 0 0 0 0 0 0 0 0 
0 0 0 0 0 0 0 0 0 
0 0 0 0 0 0 0 0 0 
0 0 1.35547e-09 0 0 3.81233e-09 3.38013e-09 0 2.97008e-09 
0 0 0 0 0 0 0 0 0 
0 0 0 0 0 0 0 1.08059e-06 1.08362e-08 
0 0 0 0 0 0 0 0 0 
0 6.0359e-10 0 0 0 0 0 0 0 
0 0 4.29376e-09 0 1.05668e-06 0 0 0 0 
0 0 0 0 0 0 0 0 0 
0 0 0 0 0 0 0 0 0 
0 0 0 0 0 0 0 0 0 
7.9835e-09 0 0 0 0 0 0 0 6.90518e-07 
3.10626e-09 0 0 0 0 0 0 0 0 
0 0 0 0 0 0 0 7.13599e-07 0 
0 0 0 0 0 0 0 0 0 
0 0 0 0 2.57029e-09 0 0 0 1.01191e-06 
0 0 0 0 7.99276e-07 0 0 0 0 
0 0 0 0 0 0 0 2.12441e-09 3.26003e-09 
0 7.20338e-07 0 0 0 9.86243e-07 0 0 0 
1.15941e-09 0 0 0 0 0 0 0 0 
0 0 0 0 0 0 0 0 0 
0 0 0 0 0 0 0 0 0 
0 0 0 0 0 0 9.35683e-10 0 0 
3.20501e-09 2.20325e-09 0 0 0 0 1.52966e-09 0 0 
0 0 0 0 0 0 0 0 0 
0 0 3.00702e-09 0 0 0 0 0 0 
0 0 0 2.23521e-09 0 0 0 0 0 
6.85869e-09 0 0 1.02071e-06 0 0 0 4.1644e-09 0 
0 0 0 0 3.38083e-09 0 7.06709e-07 0 0 
2.37089e-09 0 4.40832e-09 0 3.70234e-09 0 0 0 0 
0 0 0 0 0 0 0 0 0 
0 0 0 0 0 0 0 0 0 
0 0 0 0 0 0 0 0 0 
0 5.4415e-09 7.19732e-07 4.77703e-09 0 4.8284e-10 0 0 0 
0 0 0 0 0 0 0 0 6.91247e-07 
0 1.70049e-09 0 0 0 0 0 0 0 
0 0 7.50478e-09 7.88702e-07 0 4.44027e-09 0 0 0 
0 0 0 1.52804e-09 0 1.09695e-09 0 0 0 
0 0 0 0 9.80118e-07 0 0 4.50393e-09 0 
7.42145e-07 0 0 7.30179e-07 0 0 0 5.30353e-09 0 
0 0 4.26198e-09 0 0 0 0 0 0 
0 0 0 0 0 0 0 0 0 
0 0 0 0 0 0 0 0 0 
0 0 0 0 0 0 0 0 0 
0 0 0 0 0 0 0 0 0 
0 0 0 0 0 0 0 0 0 
0 0 0 0 0 0 0 0 0 
0 0 0 0 0 0 8.19928e-07 0 0 
0 0 0 0 0 0 0 0 0 
0 0 0 0 0 0 0 0 0 
0 0 0 0 4.77642e-09 0 6.35416e-09 0 0 
0 0 0 0 0 5.73785e-09 0 0 9.39355e-10 
0 0 0 0 0 0 0 0 0 
0 0 0 0 0 0 0 0 0 
0 0 0 0 0 0 0 0 0 
0 0 0 0 0 3.95907e-09 0 0 0 
0 0 3.52439e-09 0 0 0 0 0 0 
0 0 0 0 0 0 0 0 0 
0 0 0 0 0 0 0 0 3.12019e-09 
3.29576e-09 0 0 0 7.22756e-07 0 0 0 0 
0 9.93758e-10 0 0 0 0 0 0 0 
0 0 0 0 0 0 0 7.34489e-09 0 
0 0 4.64552e-09 0 0 8.33177e-07 0 0 0 
0 0 0 0 0 0 0 0 0 
0 0 0 0 0 0 0 0 0 
0 0 0 0 0 0 0 0 0 
0 0 0 9.37855e-07 9.5686e-07 0 0 0 0 
0 0 0 6.95073e-09 0 0 0 0 0 
2.41708e-09 4.09102e-10 0 0 0 0 0 0 0 
0 0 0 0 0 0 0 9.44489e-07 0 
0 0 0 0 5.40778e-09 0 0 0 7.16935e-07 
0 0 0 0 7.01208e-07 0 0 0 0 
0 0 0 2.73101e-09 1.62343e-09 0 4.04357e-09 0 0 
0 0 7.27806e-07 0 0 0 0 8.19258e-07 0 
0 0 0 0 0 0 0 0 0 
0 0 0 0 0 0 0 0 0 
0 0 0 0 0 0 0 0 0 
0 0 0 0 0 0 6.23084e-09 0 0 
0 0 0 0 0 6.83297e-07 8.16979e-09 0 0 
0 0 0 0 6.90353e-07 3.05561e-09 0 0 0 
0 0 0 0 0 0 0 0 0 
0 0 0 0 0 0 0 0 0 
0 6.27986e-09 0 0 0 0 0 0 0 
1.85116e-09 0 6.99423e-07 0 0 0 0 0 0 
7.27494e-07 0 0 2.90022e-09 0 0 0 0 0 
0 0 0 0 0 0 0 0 0 
0 0 0 0 0 0 0 0 0 
0 0 0 0 0 0 0 0 0 
0 0 0 9.35415e-10 0 0 0 0 0 
0 0 0 0 0 0 0 0 0 
0 0 0 0 0 3.52296e-09 0 0 0 
0 0 0 0 0 0 0 1.0678e-06 1.24729e-06 
1.13153e-06 0 0 0 8.28529e-07 0 0 3.50691e-09 4.68995e-09 
0 0 3.38356e-09 0 0 0 0 0 0 
0 0 2.32329e-09 0 0 0 3.73678e-09 0 0 
0 0 0 0 0 0 0 0 0 
3.39007e-09 0 0 0 0 0 0 0 0 
0 0 0 0 0 0 0 0 0 
0 0 0 0 0 0 0 0 0 
0 0 0 0 0 5.65045e-09 0 0 7.95006e-09 
9.3658e-07 0 0 0 0 0 0 0 0 
0 0 0 0 0 0 2.14949e-09 0 0 
0 0 0 0 0 0 0 0 0 
0 0 0 0 0 0 6.56807e-09 7.84023e-07 0 
0 4.2354e-09 0 0 0 0 0 0 0 
0 0 0 0 0 0 0 0 7.03202e-07 
0 0 0 0 0 0 0 0 0 
0 0 0 0 0 0 0 0 0 
0 0 0 0 0 0 0 0 0 
0 0 0 0 0 0 0 0 0 
0 0 0 0 0 0 0 0 4.28774e-09 
0 9.24816e-07 0 0 0 0 0 0 0 
0 0 0 0 0 0 0 0 0 
0 0 0 0 0 0 0 0 0 
0 1.90939e-09 0 0 0 7.90864e-07 0 0 0 
0 0 0 0 0 0 0 0 0 
0 0 0 0 0 0 0 0 0 
0 0 2.15951e-09 0 0 0 0 0 0 
0 0 0 0 0 0 0 0 0 
0 0 0 0 0 0 0 0 0 
0 0 0 0 0 0 0 0 0 
0 0 0 0 0 0 0 0 0 
0 0 1.98584e-08 0 2.8317e-09 0 0 0 0 
0 0 0 0 0 0 0 0 0 
0 0 0 0 0 0 0 2.69312e-09 0 
4.75331e-09 7.56966e-07 2.59591e-09 0 0 0 6.52253e-09 4.26787e-09 6.43146e-09 
0 0 0 0 9.25795e-07 0 0 0 0 
0 0 0 0 0 0 0 0 0 
0 0 0 0 0 0 0 0 0 
0 0 0 0 0 0 0 0 0 
0 0 0 0 0 0 0 0 0 
0 0 0 0 0 0 0 0 0 
0 0 0 0 0 0 0 0 0 
0 0 0 0 0 0 0 0 0 
0 0 0 0 0 0 0 0 0 
0 0 0 0 0 3.44905e-09 6.85798e-07 6.36447e-09 0 
0 0 0 0 1.09725e-09 1.77539e-09 0 0 0 
0 0 0 0 2.97171e-09 9.21133e-07 0 4.20514e-09 2.017e-09 
0 0 0 0 0 0 0 0 0 
0 0 0 0 0 0 0 0 0 
0 0 0 0 0 0 0 0 0 
0 0 0 0 0 0 0 0 0 
0 0 0 0 0 0 0 0 0 
0 0 0 0 0 0 0 0 0 
0 0 0 0 0 0 0 0 9.12142e-10 
0 0 0 0 0 0 0 0 0 
0 0 0 0 0 0 0 0 0 
0 0 0 2.01873e-09 0 0 0 0 0 
0 0 0 0 0 0 0 0 0 
0 0 0 0 0 0 0 0 0 
0 0 0 0 0 0 0 0 6.91773e-07 
0 0 0 0 0 0 0 0 0 
0 0 0 0 0 0 0 0 0 
0 0 0 0 0 0 0 0 0 
0 0 0 0 0 0 0 0 6.82239e-07 
0 0 0 0 0 3.57435e-09 0 0 0 
0 0 0 0 0 0 0 0 0 
0 0 0 0 0 0 0 0 0 
0 0 0 0 0 0 0 8.07137e-10 0 
0 0 0 0 0 0 0 0 0 
0 0 0 0 4.79182e-09 0 0 0 0 
0 0 0 0 0 0 0 0 3.47927e-09 
0 0 0 0 0 0 0 0 0 
0 0 0 0 0 0 0 0 0 
0 0 0 0 0 0 0 0 0 
0 0 0 0 0 0 0 0 2.23893e-09 
0 0 0 0 0 0 0 0 0 
0 0 0 0 0 0 0 0 0 
0 0 0 0 0 0 0 0 0 
0 0 0 0 0 0 0 0 0 
0 0 0 0 0 0 0 0 0 
0 0 2.93166e-09 0 0 7.25804e-07 0 0 0 
0 0 0 0 0 0 0 0 0 
0 0 0 0 0 0 0 0 0 
0 0 0 0 0 0 0 0 0 
0 0 0 0 0 0 0 0 0 
0 0 0 0 0 0 0 0 0 
0 0 0 0 0 0 0 3.13842e-09 6.99352e-07 
5.13443e-09 0 0 0 0 0 0 0 0 
0 0 0 0 0 0 0 0 0 
0 0 0 0 0 0 0 0 0 
0 0 0 0 0 0 0 0 0 
0 0 0 0 0 1.11699e-09 0 0 3.75347e-09 
0 0 0 0 0 0 0 0 0 
1.25549e-09 0 0 0 0 2.26621e-09 0 0 0 
0 0 0 0 0 0 0 0 0 
0 0 0 0 0 0 0 0 0 
0 0 0 0 0 0 0 0 0 
0 0 0 0 0 0 0 0 0 
0 0 4.52781e-09 0 7.15109e-07 0 0 0 0 
0 0 0 0 0 0 0 0 0 
0 0 0 0 0 0 0 0 0 
0 0 0 0 0 0 0 0 0 
0 0 0 0 6.1351e-09 7.21981e-07 6.94385e-09 0 0 
4.76431e-09 0 0 0 0 0 0 0 0 
0 0 0 0 6.91854e-07 4.81778e-09 0 0 3.43609e-09 
0 0 0 0 0 0 0 0 0 
0 0 0 0 0 0 0 0 0 
0 0 0 0 0 0 0 0 0 
0 0 0 0 0 0 0 0 0 
0 0 0 0 0 0 0 0 0 
0 0 0 9.97983e-10 3.60387e-09 0 0 0 0 
2.49635e-09 0 0 0 0 0 3.33586e-09 6.83954e-07 0 
5.09334e-09 0 0 0 0 0 0 0 0 
6.85675e-07 5.24655e-09 0 0 0 0 0 0 0 
1.66236e-08 7.03655e-07 0 0 0 0 0 0 0 
0 0 0 0 0 1.67179e-09 0 0 0 
0 0 9.15842e-07 0 0 0 0 0 0 
0 0 0 0 0 0 0 0 0 
0 0 0 0 0 0 0 0 0 
0 0 0 0 0 0 0 0 0 
0 0 0 0 0 0 5.34909e-09 0 0 
0 0 0 0 0 0 7.12316e-07 0 4.36791e-09 
0 0 0 0 0 0 0 0 0 
0 1.39308e-09 0 0 0 0 0 0 0 
0 0 0 0 0 0 3.79242e-09 0 0 
0 0 0 0 0 0 0 0 0 
0 0 0 0 0 0 0 0 0 
0 0 0 9.15517e-07 5.84988e-09 0 0 0 0 
0 0 0 0 0 0 0 0 0 
0 0 0 0 0 0 0 0 0 
0 0 0 0 0 0 0 0 0 
0 0 0 0 0 8.10048e-09 7.40032e-07 0 2.91595e-09 
0 0 0 0 0 0 0 0 0 
0 0 0 8.7227e-07 0 0 0 0 0 
0 0 0 0 0 0 0 0 0 
2.74449e-09 0 0 0 0 0 0 0 0 
1.24286e-09 0 0 0 0 0 0 0 0 
0 0 0 0 0 0 0 0 0 
0 0 0 0 0 0 0 0 0 
0 0 0 0 0 0 0 0 0 
0 0 0 0 0 0 0 0 0 
0 0 0 0 0 0 4.01825e-09 0 5.33357e-09 
0 0 0 3.19024e-09 8.69497e-07 0 0 0 3.60513e-09 
0 0 0 0 0 0 0 0 0 
0 0 7.85373e-07 0 3.04165e-09 8.42505e-07 1.0378e-08 0 0 
0 2.31596e-09 0 0 0 0 0 0 0 
0 0 0 0 0 0 0 0 0 
0 0 0 0 0 0 0 0 0 
0 0 0 0 0 0 0 0 0 
0 0 0 0 0 0 0 0 0 
0 0 0 0 0 0 0 0 0 
0 0 0 0 0 0 0 0 0 
0 0 0 0 0 0 0 6.86147e-07 0 
0 0 0 0 9.48079e-07 4.26544e-09 0 0 0 
0 0 0 0 0 0 0 7.00499e-07 0 
0 0 3.71097e-09 8.67063e-09 0 0 0 0 4.28009e-09 
0 0 0 0 0 0 0 0 0 
0 0 0 0 0 0 0 0 0 
0 0 0 0 0 0 0 0 0 
0 0 0 0 0 0 0 0 0 
0 0 0 0 0 0 0 0 0 
0 0 0 0 0 0 0 0 0 
0 0 0 0 0 0 0 0 0 
0 0 0 0 0 0 0 0 0 
0 0 0 0 8.45364e-07 0 0 3.42332e-09 1.56639e-09 
0 0 0 4.06385e-09 0 0 0 0 0 
0 0 0 0 0 0 0 0 0 
0 0 0 0 0 0 0 0 0 
0 0 7.4015e-07 0 0 0 0 0 0 
0 0 0 0 0 0 0 0 0 
0 0 0 0 0 0 0 0 0 
0 0 0 0 0 0 0 0 0 
0 0 0 0 0 0 0 0 0 
0 0 0 0 0 0 0 0 0 
0 0 0 0 0 0 0 0 0 
0 0 0 0 3.85941e-09 0 0 6.80177e-09 0 
0 0 0 0 6.87416e-07 0 0 0 0 
0 0 0 0 0 0 0 0 0 
0 0 0 0 0 0 0 0 0 
0 0 9.9146e-10 7.02936e-09 7.54604e-09 7.40022e-07 0 0 0 
0 0 0 0 0 0 0 0 0 
0 0 0 0 0 0 0 0 0 
0 0 0 0 0 0 0 0 0 
0 0 0 0 0 0 0 0 0 
0 0 0 0 0 0 0 0 0 
0 0 0 0 0 0 0 0 0 
0 0 0 0 0 0 0 0 0 
0 0 0 0 0 0 0 0 0 
0 0 0 0 0 0 0 0 0 
0 0 0 0 0 0 0 0 0 
0 0 0 0 0 0 9.25393e-09 0 0 
0 0 0 0 0 0 0 0 0 
0 0 0 0 0 0 0 0 0 
0 0 0 0 0 0 0 0 0 
0 0 0 0 0 0 0 0 0 
0 0 0 0 0 0 0 0 0 
0 0 0 0 0 0 0 0 0 
0 0 0 0 0 0 0 0 0 
0 0 0 0 0 0 0 0 0 
0 0 0 0 0 0 0 0 0 
0 0 0 0 0 0 0 0 0 
0 0 0 0 0 0 0 0 0 
0 0 0 0 0 0 0 0 0 
0 0 0 0 0 0 0 0 0 
0 0 0 0 0 0 0 0 0 
0 0 0 0 0 0 0 0 0 
0 0 0 0 0 0 0 0 0 
0 0 0 0 0 0 0 0 0 
0 0 0 0 0 0 0 0 0 
0 0 0 0 0 0 0 0 0 
0 0 0 0 0 0 0 0 0 
0 0 0 0 0 0 0 0 0 
0 0 0 0 0 0 0 0 0 
0 0 0 0 0 0 0 0 0 
0 0 0 0 0 0 0 0 0 
0 0 0 0 0 0 0 0 0 
0 0 0 0 0 0 0 0 0 
0 0 0 0 0 0 0 0 0 
0 0 0 0 0 0 0 0 0 
0 0 0 0 0 0 0 0 0 
0 0 0 0 0 0 0 0 0 
0 0 0 0 0 0 0 0 0 
0 0 0 0 0 0 0 0 0 
0 0 0 0 0 0 0 0 0 
0 0 0 0 0 0 0 0 0 
0 0 0 0 0 0 0 0 0 
0 0 0 0 0 0 0 0 0 
0 0 0 0 0 0 0 0 0 
0 0 0 0 0 0 0 0 0 
0 0 0 0 0 0 0 0 0 
0 0 0 0 0 0 0 0 0 
0 0 0 0 0 0 0 0 0 
0 0 0 0 0 0 0 0 0 
0 0 0 0 0 0 0 0 0 
0 0 0 0 0 0 0 0 0 
0 0 0 0 0 0 0 0 0 
0 0 0 0 0 0 0 0 0 
0 0 0 0 0 0 0 0 0 
0 0 0 0 0 0 0 0 0 
0 0 0 0 0 0 0 0 0 
0 0 0 0 0 0 0 0 0 
0 0 0 0 0 0 0 0 0 
0 0 0 0 0 0 0 0 0 
0 0 0 0 0 0 0 0 0 
0 0 0 0 0 0 0 0 0 
0 0 0 0 0 0 0 0 0 
0 0 0 0 0 0 0 0 0 
0 0 0 0 0 0 0 0 0 
0 0 0 0 0 0 0 0 0 
0 0 0 0 0 0 0 0 0 
0 0 0 0 0 0 0 0 0 
0 0 0 0 0 0 0 0 0 
0 0 0 0 0 0 0 0 0 
0 0 0 0 0 0 0 0 0 
0 0 0 0 0 0 0 0 0 
0 0 0 0 0 0 0 0 0 
0 0 0 0 0 0 0 0 0 
0 0 0 0 0 0 0 0 0 
0 0 0 0 0 0 0 0 0 
0 0 0 0 0 0 0 0 0 
0 0 0 0 0 0 0 0 0 
0 0 0 0 0 0 0 0 0 
0 0 0 0 0 0 0 0 0 
0 0 0 0 0 0 0 0 0 
0 0 0 0 0 0 0 0 0 
0 0 0 0 0 0 0 0 0 
0 0 0 0 0 0 0 0 0 
0 0 0 0 0 0 0 0 0 
0 0 0 0 0 0 0 0 0 
0 0 0 0 0 0 0 0 0 
0 0 0 0 0 0 0 0 0 
0 0 0 0 0 0 0 0 0 
0 0 0 0 0 0 0 0 0 
0 0 0 0 0 0 0 0 0 
0 0 0 0 0 0 0 0 0 
0 0 0 0 0 0 0 0 0 
0 0 0 0 0 0 0 0 0 
0 0 0 0 0 0 0 0 0 
0 0 0 0 0 0 0 0 0 
0 0 0 0 0 0 0 0 0 
0 0 0 0 0 0 0 0 0 
0 0 0 0 0 0 0 0 0 
0 0 0 0 0 0 0 0 0 
0 0 0 0 0 0 0 0 0 
0 0 0 0 0 0 0 0 0 
0 0 0 0 0 0 0 0 0 
0 0 0 0 0 0 0 0 0 
0 0 0 0 0 0 0 0 0 
0 0 0 0 0 0 0 0 0 
0 0 0 0 0 0 0 0 0 
0 0 0 0 0 0 0 0 0 
0 0 0 0 0 0 0 0 0 
0 0 0 0 0 0 0 0 0 
0 0 0 0 0 0 0 0 0 
0 0 0 0 0 0 0 0 0 
0 0 0 0 0 0 0 0 0 
0 0 0 0 0 0 0 0 0 
0 0 0 0 0 0 0 0 0 
0 0 0 0 0 0 0 0 0 
0 0 0 0 0 0 0 0 0 
0 0 0 0 0 0 0 0 0 
0 0 0 0 0 0 0 0 0 
0 0 0 0 0 0 0 0 0 
0 0 0 0 0 0 0 0 0 
0 0 0 0 0 0 0 0 0 
0 0 0 0 0 0 0 0 0 
0 0 0 0 0 0 0 0 0 
0 0 0 0 0 0 0 0 0 
0 0 0 0 0 0 0 0 0 
0 0 0 0 0 0 0 0 0 
0 0 0 0 0 0 0 0 0 
0 0 0 0 0 0 0 0 0 
0 0 0 0 0 0 0 0 0 
0 0 0 0 0 0 0 0 0 
0 0 0 0 0 0 0 0 0 
0 0 0 0 0 0 0 0 0 
0 0 0 0 0 0 0 0 0 
0 0 0 0 0 0 0 0 0 
0 
feature_2 1 10000 float
0 0 0 0 0 0 0 0 0 
0 0 0 0 0 0 0 0 0 
0 0 0 0 0 0 0 0 0 
0 0 0 0 0 0 0 0 0 
0 0 0 0 0 0 0 0 0 
0 0 0 0 0 1.86734e-09 0 0 0 
0 0 0 0 0 0 0 0 0 
0 0 0 0 0 0 0 1.44272e-09 0 
0 0 1.42624e-09 0 0 0 0 3.95245e-09 0 
0 0 0 3.71985e-09 0 0 0 0 0 
0 0 0 0 0 0 0 0 0 
0 0 0 0 0 0 0 0 0 
0 0 0 3.87695e-09 0 0 0 0 0 
0 0 0 0 0 0 0 0 0 
0 0 0 0 1.63379e-09 0 0 0 0 
0 0 0 0 0 0 0 0 0 
0 0 0 0 0 0 1.44315e-09 0 0 
0 0 0 0 0 0 0 0 0 
0 0 0 0 0 0 0 0 0 
0 0 1.48006e-09 0 0 0 0 0 0 
0 0 0 0 4.21612e-09 1.51645e-09 0 0 0 
0 0 0 0 0 0 0 0 0 
0 0 0 0 0 0 0 0 0 
0 0 0 0 0 0 0 0 0 
0 0 0 0 0 0 0 0 0 
0 0 0 0 0 0 0 0 0 
0 0 0 0 0 0 0 0 0 
0 0 0 0 0 0 0 0 0 
0 0 0 0 0 2.40155e-09 0 0 0 
0 0 0 0 0 0 0 0 0 
0 0 0 0 0 0 0 0 0 
0 0 0 0 0 0 0 0 0 
0 0 0 0 0 0 0 0 0 
0 0 0 0 0 0 0 0 1.44978e-09 
0 0 0 0 0 0 0 0 0 
0 0 0 0 0 0 0 0 0 
0 0 0 0 0 0 0 0 0 
0 0 0 0 0 0 2.57656e-09 0 0 
0 0 0 0 0 0 0 0 0 
0 0 0 0 0 0 0 0 0 
0 0 0 0 0 0 0 0 0 
0 0 2.54708e-09 3.23456e-09 0 0 0 0 0 
0 0 0 0 0 0 0 0 0 
0 0 0 0 0 0 0 0 0 
0 0 0 0 0 0 0 0 0 
0 0 0 3.88771e-09 0 0 0 0 0 
0 0 0 0 1.81193e-09 0 0 0 0 
0 0 0 0 0 0 0 0 0 
0 0 0 0 0 0 0 0 0 
0 0 0 0 0 0 0 0 0 
0 0 0 0 0 0 0 0 0 
0 0 0 0 0 0 0 0 0 
0 0 0 0 0 0 0 0 0 
0 0 0 0 0 0 0 0 0 
0 0 0 0 0 0 0 0 0 
0 0 0 0 0 0 0 0 0 
0 0 0 0 0 0 0 0 0 
0 0 0 0 2.27815e-09 0 0 0 0 
0 0 0 0 0 0 0 0 0 
0 0 0 0 0 0 0 0 0 
0 0 0 0 0 0 0 0 0 
0 0 0 0 0 0 0 0 0 
0 0 0 0 0 0 0 0 0 
0 0 0 0 0 0 0 0 0 
0 0 0 0 0 0 0 0 0 
0 0 0 0 0 0 0 0 0 
0 0 0 0 0 0 0 0 0 
0 0 0 0 0 0 0 0 0 
0 0 0 0 0 0 0 0 0 
0 0 0 0 0 0 0 0 0 
0 0 0 0 0 0 0 0 0 
0 0 0 0 0 0 0 2.02822e-09 0 
0 0 0 0 0 0 0 1.568e-09 0 
0 3.23961e-09 0 0 0 0 0 0 0 
0 0 0 0 0 0 0 0 0 
0 0 0 2.8274e-09 0 0 0 0 6.20619e-09 
0 0 0 0 0 0 0 0 2.54558e-09 
0 0 0 0 0 0 0 0 0 
0 0 0 0 0 0 0 0 0 
0 0 0 0 0 0 0 0 0 
0 0 0 0 0 0 0 0 0 
0 0 0 0 0 0 0 0 0 
0 0 3.70407e-09 0 0 0 2.31082e-09 0 0 
0 0 0 0 0 0 0 0 0 
0 0 0 0 0 0 0 0 0 
0 0 0 0 0 0 0 0 0 
0 0 0 0 0 0 0 0 1.63542e-10 
0 0 0 0 0 0 0 0 2.44233e-09 
0 0 0 0 0 0 0 0 0 
0 0 0 0 0 0 0 0 0 
0 0 0 0 0 0 0 0 0 
0 0 0 0 0 0 0 0 0 
0 0 0 0 0 0 0 0 0 
0 0 0 0 0 0 0 0 0 
0 0 0 0 0 0 0 0 0 
0 0 0 0 0 0 0 0 0 
0 0 1.12094e-09 0 0 0 0 0 0 
0 0 0 0 0 0 0 0 0 
0 0 0 0 0 3.94124e-09 0 0 0 
0 0 0 0 0 0 0 0 0 
0 0 0 0 0 0 0 0 0 
0 0 0 0 0 0 0 0 0 
0 0 0 0 0 0 0 0 0 
0 0 0 0 0 0 0 0 0 
0 0 0 0 0 0 0 0 0 
0 0 0 0 0 0 0 0 0 
0 0 0 0 0 0 0 0 0 
0 0 0 0 0 0 0 0 0 
0 0 0 0 0 0 0 0 0 
0 0 0 0 0 0 0 0 0 
0 2.88136e-09 0 0 0 0 0 0 0 
0 0 0 0 0 0 0 0 0 
0 0 0 0 0 0 0 0 0 
0 0 0 0 0 0 0 0 0 
0 0 0 0 1.64675e-09 0 0 0 0 
0 0 0 0 0 0 0 0 0 
0 0 0 0 0 0 2.28673e-09 0 0 
0 0 0 0 0 0 0 0 0 
0 0 0 0 0 0 0 0 0 
0 0 0 0 0 0 0 0 0 